 Gaussian 16, Revision B.01,
 Gaussian 16:  ES64L-G16RevB.01 20-Dec-2017

 ------------------------------------------------
 # opt=modredundant b3lyp/3-21g geom=connectivity
 ------------------------------------------------

 -------------------
 Title Card Required
 -------------------
 Symbolic Z-matrix:
 Charge =  0 Multiplicity = 1

 SCF Done:  E(RB3LYP) =  -271.058502726     A.U. after   13 cycles
 SCF Done:  E(RB3LYP) =  -271.116351158     A.U. after   12 cycles
 SCF Done:  E(RB3LYP) =  -271.194627010     A.U. after   12 cycles
 SCF Done:  E(RB3LYP) =  -271.219104022     A.U. after   12 cycles
 SCF Done:  E(RB3LYP) =  -271.222076303     A.U. after   12 cycles
 SCF Done:  E(RB3LYP) =  -271.222643840     A.U. after   11 cycles
 SCF Done:  E(RB3LYP) =  -271.222672136     A.U. after    9 cycles
 SCF Done:  E(RB3LYP) =  -271.222677168     A.U. after    8 cycles
 Optimization completed.
    -- Stationary point found.

                         Standard orientation:
 ---------------------------------------------------------------------
 Center     Atomic      Atomic             Coordinates (Angstroms)
 Number     Number       Type             X           Y           Z
 ---------------------------------------------------------------------
      1          6           0        0.006912   -1.128733    0.287310
      2          6           0       -1.307784   -0.669053   -0.399613
      3          6           0       -1.307982    0.668793   -0.399474
      4          6           0        0.006613    1.128680    0.287498
      5          1           0       -0.024043   -2.149214    0.674971
      6          1           0       -2.019777   -1.335524   -0.868449
      7          1           0       -2.020154    1.335160   -0.868184
      8          1           0       -0.024539    2.149051    0.675428
      9          6           0        0.110369   -0.000118    1.381390
     10          1           0       -0.722793   -0.000266    2.085051
     11          1           0        1.075739   -0.000041    1.900878
     12          6           0        1.060491   -0.808395   -0.577186
     13          1           0        0.944727   -1.193827   -1.596345
     14          1           0        2.037244   -1.155023   -0.211578
     15          6           0        1.060179    0.808778   -0.577175
     16          1           0        2.036877    1.155878   -0.211892
     17          1           0        0.943932    1.194089   -1.596395
 ---------------------------------------------------------------------

 The electronic state is 1-A.
 Alpha  occ. eigenvalues --  -10.11529 -10.11430 -10.11287 -10.11192 -10.11109
 Alpha  occ. eigenvalues --  -10.10397 -10.10344  -0.89623  -0.74141  -0.74051
 Alpha  occ. eigenvalues --   -0.68445  -0.57670  -0.55748  -0.51830  -0.50525
 Alpha  occ. eigenvalues --   -0.47787  -0.43812  -0.39776  -0.39611  -0.36659
 Alpha  occ. eigenvalues --   -0.35010  -0.32943  -0.32500  -0.30750  -0.28133
 Alpha  occ. eigenvalues --   -0.23730
 Alpha virt. eigenvalues --    0.03003   0.11738   0.13267   0.15986   0.16448
 Alpha virt. eigenvalues --    0.18723   0.19481   0.19511   0.19976   0.20863
 Alpha virt. eigenvalues --    0.21171   0.22484   0.25331   0.26475   0.28375

 Mulliken charges:
               1
     1  C   -0.357063
     2  C   -0.112849
     3  C   -0.112855
     4  C   -0.357060
     5  H    0.173292
     6  H    0.173478
     7  H    0.173480
     8  H    0.173293
     9  C   -0.273724
    10  H    0.192554
    11  H    0.174926
    12  C   -0.299487
    13  H    0.189008
    14  H    0.186742
    15  C   -0.299477
    16  H    0.186736
    17  H    0.189002
 Sum of Mulliken charges =   0.00000

 Dipole moment (field-independent basis, Debye):
    X=              0.1933    Y=              0.0000    Z=             -0.0986  Tot=              0.2170
 Quadrupole moment (field-independent basis, Debye-Ang):
   XX=            -43.2657   YY=            -41.9409   ZZ=            -43.8943
   XY=             -0.0003   XZ=              1.3455   YZ=              0.0006

 Normal termination of Gaussian 16 at Sun Oct 20 19:30:57 2019.
