 Gaussian 16, Revision B.01,
 Gaussian 16:  ES64L-G16RevB.01 20-Dec-2017

 ------------------------------------------------
 # opt=modredundant b3lyp/3-21g geom=connectivity
 ------------------------------------------------

 -------------------
 Title Card Required
 -------------------
 Symbolic Z-matrix:
 Charge =  0 Multiplicity = 1

 SCF Done:  E(RB3LYP) =  -271.136983331     A.U. after   13 cycles
 SCF Done:  E(RB3LYP) =  -271.186118628     A.U. after   12 cycles
 SCF Done:  E(RB3LYP) =  -271.235469150     A.U. after   12 cycles
 SCF Done:  E(RB3LYP) =  -271.247441672     A.U. after   12 cycles
 SCF Done:  E(RB3LYP) =  -271.248477446     A.U. after   12 cycles
 SCF Done:  E(RB3LYP) =  -271.248532660     A.U. after   10 cycles
 SCF Done:  E(RB3LYP) =  -271.248537696     A.U. after    8 cycles
 Optimization completed.
    -- Stationary point found.

                         Standard orientation:
 ---------------------------------------------------------------------
 Center     Atomic      Atomic             Coordinates (Angstroms)
 Number     Number       Type             X           Y           Z
 ---------------------------------------------------------------------
      1          6           0       -0.044715   -1.134775    0.314144
      2          6           0       -1.292944   -0.669803   -0.463006
      3          6           0       -1.292973    0.669783   -0.462962
      4          6           0       -0.044756    1.134749    0.314230
      5          1           0       -0.077233   -2.158118    0.689031
      6          1           0       -1.968122   -1.331085   -0.989855
      7          1           0       -1.968166    1.331078   -0.989773
      8          1           0       -0.077309    2.158049    0.689230
      9          6           0        0.029646   -0.000053    1.390874
     10          1           0       -0.828114   -0.000084    2.066254
     11          1           0        0.973489   -0.000062    1.947376
     12          6           0        1.133004   -0.795899   -0.550809
     13          1           0        1.043020   -1.199709   -1.563492
     14          1           0        2.069261   -1.167986   -0.117570
     15          6           0        1.132939    0.795993   -0.550801
     16          1           0        2.069225    1.168202   -0.117738
     17          1           0        1.042746    1.199747   -1.563472
 ---------------------------------------------------------------------

 The electronic state is 1-A.
 Alpha  occ. eigenvalues --  -10.12044 -10.11941 -10.11262 -10.11191 -10.11139
 Alpha  occ. eigenvalues --  -10.10963 -10.10897  -0.88295  -0.73833  -0.72177
 Alpha  occ. eigenvalues --   -0.68729  -0.57654  -0.55591  -0.51341  -0.50702
 Alpha  occ. eigenvalues --   -0.47208  -0.43624  -0.39535  -0.38500  -0.35348
 Alpha  occ. eigenvalues --   -0.34190  -0.33689  -0.32357  -0.32149  -0.29142
 Alpha  occ. eigenvalues --   -0.23506
 Alpha virt. eigenvalues --    0.03000   0.11831   0.13752   0.15918   0.17791
 Alpha virt. eigenvalues --    0.19126   0.19282   0.19711   0.19920   0.20668
 Alpha virt. eigenvalues --    0.21193   0.21346   0.25442   0.25481   0.27314

 Mulliken charges:
               1
     1  C   -0.339669
     2  C   -0.114119
     3  C   -0.114124
     4  C   -0.339668
     5  H    0.170964
     6  H    0.173365
     7  H    0.173366
     8  H    0.170964
     9  C   -0.278058
    10  H    0.194165
    11  H    0.176612
    12  C   -0.314363
    13  H    0.190133
    14  H    0.187329
    15  C   -0.314366
    16  H    0.187325
    17  H    0.190144
 Sum of Mulliken charges =  -0.00000

 Dipole moment (field-independent basis, Debye):
    X=              0.2398    Y=              0.0000    Z=             -0.0980  Tot=              0.2591
 Quadrupole moment (field-independent basis, Debye-Ang):
   XX=            -43.5569   YY=            -41.9669   ZZ=            -43.6715
   XY=             -0.0001   XZ=              1.4296   YZ=              0.0002

 Normal termination of Gaussian 16 at Sun Oct 20 19:30:18 2019.
