 Gaussian 16, Revision B.01,
 Gaussian 16:  ES64L-G16RevB.01 20-Dec-2017

 ------------------------------------------------
 # opt=modredundant b3lyp/3-21g geom=connectivity
 ------------------------------------------------

 -------------------
 Title Card Required
 -------------------
 Symbolic Z-matrix:
 Charge =  0 Multiplicity = 1

 SCF Done:  E(RB3LYP) =  -271.184913234     A.U. after   13 cycles
 SCF Done:  E(RB3LYP) =  -271.223486259     A.U. after   12 cycles
 SCF Done:  E(RB3LYP) =  -271.249092164     A.U. after   12 cycles
 SCF Done:  E(RB3LYP) =  -271.252856750     A.U. after   12 cycles
 SCF Done:  E(RB3LYP) =  -271.253093271     A.U. after   10 cycles
 SCF Done:  E(RB3LYP) =  -271.253105930     A.U. after    9 cycles
 Optimization completed.
    -- Stationary point found.

                         Standard orientation:
 ---------------------------------------------------------------------
 Center     Atomic      Atomic             Coordinates (Angstroms)
 Number     Number       Type             X           Y           Z
 ---------------------------------------------------------------------
      1          6           0       -0.099517   -1.140333    0.334655
      2          6           0       -1.274328   -0.670979   -0.527189
      3          6           0       -1.274408    0.670916   -0.527103
      4          6           0       -0.099606    1.140291    0.334771
      5          1           0       -0.134345   -2.166016    0.698962
      6          1           0       -1.905990   -1.327551   -1.110735
      7          1           0       -1.906123    1.327497   -1.110580
      8          1           0       -0.134539    2.165928    0.699195
      9          6           0       -0.055953   -0.000068    1.395978
     10          1           0       -0.939332   -0.000130    2.039782
     11          1           0        0.863593   -0.000064    1.990658
     12          6           0        1.207742   -0.784418   -0.516461
     13          1           0        1.146616   -1.204900   -1.522208
     14          1           0        2.097322   -1.178434   -0.015837
     15          6           0        1.207626    0.784577   -0.516470
     16          1           0        2.097253    1.178761   -0.016095
     17          1           0        1.146199    1.204991   -1.522224
 ---------------------------------------------------------------------

 The electronic state is 1-A.
 Alpha  occ. eigenvalues --  -10.12507 -10.12404 -10.11438 -10.11373 -10.11243
 Alpha  occ. eigenvalues --  -10.11220 -10.11103  -0.87247  -0.73577  -0.70758
 Alpha  occ. eigenvalues --   -0.69016  -0.57641  -0.55436  -0.50988  -0.50863
 Alpha  occ. eigenvalues --   -0.46685  -0.43529  -0.39343  -0.37729  -0.34655
 Alpha  occ. eigenvalues --   -0.34298  -0.33915  -0.32877  -0.31596  -0.29890
 Alpha  occ. eigenvalues --   -0.23209
 Alpha virt. eigenvalues --    0.02969   0.11803   0.14163   0.15630   0.17828
 Alpha virt. eigenvalues --    0.18411   0.19273   0.19469   0.20050   0.20497
 Alpha virt. eigenvalues --    0.20735   0.21128   0.24480   0.25652   0.27793

 Mulliken charges:
               1
     1  C   -0.319540
     2  C   -0.117446
     3  C   -0.117454
     4  C   -0.319538
     5  H    0.169160
     6  H    0.173281
     7  H    0.173280
     8  H    0.169160
     9  C   -0.286114
    10  H    0.195875
    11  H    0.178219
    12  C   -0.328190
    13  H    0.190964
    14  H    0.187781
    15  C   -0.328192
    16  H    0.187781
    17  H    0.190973
 Sum of Mulliken charges =  -0.00000

 Dipole moment (field-independent basis, Debye):
    X=              0.2802    Y=              0.0000    Z=             -0.0842  Tot=              0.2926
 Quadrupole moment (field-independent basis, Debye-Ang):
   XX=            -43.8307   YY=            -41.9623   ZZ=            -43.3873
   XY=             -0.0002   XZ=              1.4675   YZ=              0.0002

 Normal termination of Gaussian 16 at Sun Oct 20 19:29:37 2019.
