 Gaussian 16, Revision B.01,
 Gaussian 16:  ES64L-G16RevB.01 20-Dec-2017

 ------------------------------------------------
 # opt=modredundant b3lyp/3-21g geom=connectivity
 ------------------------------------------------

 -------------------
 Title Card Required
 -------------------
 Symbolic Z-matrix:
 Charge =  0 Multiplicity = 1

 SCF Done:  E(RB3LYP) =  -271.209774577     A.U. after   13 cycles
 SCF Done:  E(RB3LYP) =  -271.236074857     A.U. after   12 cycles
 SCF Done:  E(RB3LYP) =  -271.244586544     A.U. after   12 cycles
 SCF Done:  E(RB3LYP) =  -271.245329072     A.U. after   11 cycles
 SCF Done:  E(RB3LYP) =  -271.245378832     A.U. after    8 cycles
 SCF Done:  E(RB3LYP) =  -271.245381579     A.U. after    8 cycles
 Optimization completed.
    -- Stationary point found.

                         Standard orientation:
 ---------------------------------------------------------------------
 Center     Atomic      Atomic             Coordinates (Angstroms)
 Number     Number       Type             X           Y           Z
 ---------------------------------------------------------------------
      1          6           0       -0.156209   -1.145415    0.349505
      2          6           0       -1.255026   -0.672337   -0.585997
      3          6           0       -1.255066    0.672355   -0.585895
      4          6           0       -0.156258    1.145355    0.349680
      5          1           0       -0.192072   -2.173139    0.704383
      6          1           0       -1.840632   -1.324611   -1.220061
      7          1           0       -1.840696    1.324696   -1.219867
      8          1           0       -0.192185    2.173018    0.704723
      9          6           0       -0.135660   -0.000105    1.396405
     10          1           0       -1.041236   -0.000166    2.011662
     11          1           0        0.760777   -0.000136    2.023688
     12          6           0        1.280566   -0.773958   -0.479772
     13          1           0        1.244603   -1.211604   -1.477881
     14          1           0        2.120149   -1.189442    0.083209
     15          6           0        1.280476    0.774100   -0.479757
     16          1           0        2.120146    1.189701    0.082995
     17          1           0        1.244210    1.211721   -1.477873
 ---------------------------------------------------------------------

 The electronic state is 1-A.
 Alpha  occ. eigenvalues --  -10.12899 -10.12799 -10.11795 -10.11720 -10.11332
 Alpha  occ. eigenvalues --  -10.11199 -10.11083  -0.86467  -0.73366  -0.69758
 Alpha  occ. eigenvalues --   -0.69275  -0.57596  -0.55304  -0.51013  -0.50759
 Alpha  occ. eigenvalues --   -0.46200  -0.43465  -0.39205  -0.37206  -0.34789
 Alpha  occ. eigenvalues --   -0.34700  -0.34621  -0.32462  -0.31222  -0.29430
 Alpha  occ. eigenvalues --   -0.22859
 Alpha virt. eigenvalues --    0.02900   0.11264   0.13900   0.14715   0.16313
 Alpha virt. eigenvalues --    0.18521   0.19106   0.19683   0.19836   0.20597
 Alpha virt. eigenvalues --    0.20808   0.21222   0.24272   0.25818   0.26520

 Mulliken charges:
               1
     1  C   -0.297285
     2  C   -0.122583
     3  C   -0.122590
     4  C   -0.297283
     5  H    0.168037
     6  H    0.173266
     7  H    0.173265
     8  H    0.168036
     9  C   -0.297620
    10  H    0.197617
    11  H    0.180245
    12  C   -0.340419
    13  H    0.191221
    14  H    0.187643
    15  C   -0.340419
    16  H    0.187641
    17  H    0.191227
 Sum of Mulliken charges =   0.00000

 Dipole moment (field-independent basis, Debye):
    X=              0.3041    Y=              0.0000    Z=             -0.0531  Tot=              0.3087
 Quadrupole moment (field-independent basis, Debye-Ang):
   XX=            -44.0840   YY=            -41.9139   ZZ=            -43.0737
   XY=             -0.0002   XZ=              1.4776   YZ=              0.0002

 Normal termination of Gaussian 16 at Sun Oct 20 19:28:56 2019.
