 Gaussian 16, Revision B.01,
 Gaussian 16:  ES64L-G16RevB.01 20-Dec-2017

 ------------------------------------------------
 # opt=modredundant b3lyp/3-21g geom=connectivity
 ------------------------------------------------

 -------------------
 Title Card Required
 -------------------
 Symbolic Z-matrix:
 Charge =  0 Multiplicity = 1

 SCF Done:  E(RB3LYP) =  -271.216921747     A.U. after   13 cycles
 SCF Done:  E(RB3LYP) =  -271.229498519     A.U. after   12 cycles
 SCF Done:  E(RB3LYP) =  -271.231043481     A.U. after   11 cycles
 SCF Done:  E(RB3LYP) =  -271.231107928     A.U. after   10 cycles
 SCF Done:  E(RB3LYP) =  -271.231112820     A.U. after    7 cycles
 Optimization completed.
    -- Stationary point found.

                         Standard orientation:
 ---------------------------------------------------------------------
 Center     Atomic      Atomic             Coordinates (Angstroms)
 Number     Number       Type             X           Y           Z
 ---------------------------------------------------------------------
      1          6           0       -0.213592   -1.150007    0.358786
      2          6           0       -1.235781   -0.674431   -0.637489
      3          6           0       -1.235779    0.674563   -0.637331
      4          6           0       -0.213608    1.149903    0.359099
      5          1           0       -0.247622   -2.179486    0.705505
      6          1           0       -1.773982   -1.321982   -1.316704
      7          1           0       -1.773970    1.322283   -1.316395
      8          1           0       -0.247682    2.179282    0.706109
      9          6           0       -0.208201   -0.000188    1.392293
     10          1           0       -1.131625   -0.000268    1.983549
     11          1           0        0.667779   -0.000276    2.046383
     12          6           0        1.350895   -0.762831   -0.442760
     13          1           0        1.334093   -1.218206   -1.431926
     14          1           0        2.135426   -1.199152    0.178112
     15          6           0        1.350812    0.762993   -0.442706
     16          1           0        2.135517    1.199406    0.177877
     17          1           0        1.333592    1.218376   -1.431865
 ---------------------------------------------------------------------

 The electronic state is 1-A.
 Alpha  occ. eigenvalues --  -10.13195 -10.13100 -10.12009 -10.11926 -10.11437
 Alpha  occ. eigenvalues --  -10.11173 -10.11057  -0.85945  -0.73237  -0.69498
 Alpha  occ. eigenvalues --   -0.69131  -0.57517  -0.55209  -0.51153  -0.50641
 Alpha  occ. eigenvalues --   -0.45793  -0.43441  -0.39098  -0.36906  -0.35553
 Alpha  occ. eigenvalues --   -0.35205  -0.34814  -0.31956  -0.31745  -0.27769
 Alpha  occ. eigenvalues --   -0.22459
 Alpha virt. eigenvalues --    0.02777   0.09095   0.12960   0.14941   0.16045
 Alpha virt. eigenvalues --    0.18413   0.18994   0.19151   0.19709   0.20026
 Alpha virt. eigenvalues --    0.20959   0.21547   0.24334   0.24527   0.26300

 Mulliken charges:
               1
     1  C   -0.274432
     2  C   -0.128932
     3  C   -0.128937
     4  C   -0.274430
     5  H    0.167601
     6  H    0.173227
     7  H    0.173227
     8  H    0.167601
     9  C   -0.311833
    10  H    0.199829
    11  H    0.182424
    12  C   -0.351437
    13  H    0.191261
    14  H    0.187501
    15  C   -0.351437
    16  H    0.187497
    17  H    0.191270
 Sum of Mulliken charges =  -0.00000

 Dipole moment (field-independent basis, Debye):
    X=              0.3102    Y=              0.0000    Z=             -0.0057  Tot=              0.3103
 Quadrupole moment (field-independent basis, Debye-Ang):
   XX=            -44.3381   YY=            -41.8224   ZZ=            -42.7265
   XY=             -0.0002   XZ=              1.4720   YZ=              0.0001

 Normal termination of Gaussian 16 at Sun Oct 20 19:28:15 2019.
