 Gaussian 16, Revision B.01,
 Gaussian 16:  ES64L-G16RevB.01 20-Dec-2017

 ------------------------------------------------
 # opt=modredundant b3lyp/3-21g geom=connectivity
 ------------------------------------------------

 -------------------
 Title Card Required
 -------------------
 Symbolic Z-matrix:
 Charge =  0 Multiplicity = 1

 SCF Done:  E(RB3LYP) =  -270.924525359     A.U. after   15 cycles
 SCF Done:  E(RB3LYP) =  -270.996458314     A.U. after   13 cycles
 SCF Done:  E(RB3LYP) =  -271.106495545     A.U. after   13 cycles
 SCF Done:  E(RB3LYP) =  -271.147500519     A.U. after   13 cycles
 SCF Done:  E(RB3LYP) =  -271.188595178     A.U. after   13 cycles
 SCF Done:  E(RB3LYP) =  -271.211231858     A.U. after   12 cycles
 SCF Done:  E(RB3LYP) =  -271.213711057     A.U. after   12 cycles
 SCF Done:  E(RB3LYP) =  -271.214208388     A.U. after   11 cycles
 SCF Done:  E(RB3LYP) =  -271.214347825     A.U. after   10 cycles
 SCF Done:  E(RB3LYP) =  -271.214367509     A.U. after    9 cycles
 SCF Done:  E(RB3LYP) =  -271.214368386     A.U. after    8 cycles
 Optimization completed.
    -- Stationary point found.

                         Standard orientation:
 ---------------------------------------------------------------------
 Center     Atomic      Atomic             Coordinates (Angstroms)
 Number     Number       Type             X           Y           Z
 ---------------------------------------------------------------------
      1          6           0       -0.270931   -1.153936    0.363356
      2          6           0       -1.217847   -0.677593   -0.680094
      3          6           0       -1.217817    0.677814   -0.679917
      4          6           0       -0.270871    1.153838    0.363669
      5          1           0       -0.298468   -2.185165    0.702190
      6          1           0       -1.709891   -1.320731   -1.397327
      7          1           0       -1.709817    1.321166   -1.396989
      8          1           0       -0.298386    2.184972    0.702793
      9          6           0       -0.270730   -0.000184    1.384140
     10          1           0       -1.207034   -0.000233    1.958380
     11          1           0        0.589048   -0.000300    2.057702
     12          6           0        1.417910   -0.749990   -0.407773
     13          1           0        1.412500   -1.224488   -1.386266
     14          1           0        2.141950   -1.208118    0.265882
     15          6           0        1.417899    0.750045   -0.407699
     16          1           0        2.142202    1.208208    0.265948
     17          1           0        1.412223    1.224728   -1.386400
 ---------------------------------------------------------------------

 The electronic state is 1-A.
 Alpha  occ. eigenvalues --  -10.13377 -10.13286 -10.12053 -10.11961 -10.11562
 Alpha  occ. eigenvalues --  -10.11144 -10.11026  -0.85659  -0.73217  -0.69676
 Alpha  occ. eigenvalues --   -0.68830  -0.57393  -0.55156  -0.51292  -0.50629
 Alpha  occ. eigenvalues --   -0.45497  -0.43427  -0.39054  -0.36836  -0.36303
 Alpha  occ. eigenvalues --   -0.35579  -0.35019  -0.32299  -0.31540  -0.26013
 Alpha  occ. eigenvalues --   -0.22042
 Alpha virt. eigenvalues --    0.02614   0.06337   0.12795   0.15205   0.15948
 Alpha virt. eigenvalues --    0.17017   0.18591   0.18919   0.19596   0.20026
 Alpha virt. eigenvalues --    0.21144   0.21562   0.24088   0.24563   0.26690

 Mulliken charges:
               1
     1  C   -0.252647
     2  C   -0.135781
     3  C   -0.135784
     4  C   -0.252635
     5  H    0.167876
     6  H    0.173142
     7  H    0.173142
     8  H    0.167877
     9  C   -0.327903
    10  H    0.202823
    11  H    0.184882
    12  C   -0.361078
    13  H    0.191250
    14  H    0.187356
    15  C   -0.361008
    16  H    0.187305
    17  H    0.191182
 Sum of Mulliken charges =  -0.00000

 Dipole moment (field-independent basis, Debye):
    X=              0.2913    Y=             -0.0002    Z=              0.0605  Tot=              0.2975
 Quadrupole moment (field-independent basis, Debye-Ang):
   XX=            -44.6213   YY=            -41.6709   ZZ=            -42.3579
   XY=             -0.0005   XZ=              1.4634   YZ=              0.0002

 Normal termination of Gaussian 16 at Sun Oct 20 19:27:50 2019.
