 Gaussian 16, Revision B.01,
 Gaussian 16:  ES64L-G16RevB.01 20-Dec-2017

 ------------------------------------------------
 # opt=modredundant b3lyp/3-21g geom=connectivity
 ------------------------------------------------

 -------------------
 Title Card Required
 -------------------
 Symbolic Z-matrix:
 Charge =  0 Multiplicity = 1

 SCF Done:  E(RB3LYP) =  -270.973291420     A.U. after   14 cycles
 SCF Done:  E(RB3LYP) =  -271.038504599     A.U. after   13 cycles
 SCF Done:  E(RB3LYP) =  -271.127846332     A.U. after   14 cycles
 SCF Done:  E(RB3LYP) =  -271.173685591     A.U. after   13 cycles
 SCF Done:  E(RB3LYP) =  -271.193863496     A.U. after   12 cycles
 SCF Done:  E(RB3LYP) =  -271.198171166     A.U. after   12 cycles
 SCF Done:  E(RB3LYP) =  -271.198372739     A.U. after   10 cycles
 SCF Done:  E(RB3LYP) =  -271.198412944     A.U. after    9 cycles
 SCF Done:  E(RB3LYP) =  -271.198428014     A.U. after    8 cycles
 SCF Done:  E(RB3LYP) =  -271.198429207     A.U. after    8 cycles
 Optimization completed.
    -- Stationary point found.

                         Standard orientation:
 ---------------------------------------------------------------------
 Center     Atomic      Atomic             Coordinates (Angstroms)
 Number     Number       Type             X           Y           Z
 ---------------------------------------------------------------------
      1          6           0       -0.327770   -1.157538    0.364425
      2          6           0       -1.202335   -0.682671   -0.711319
      3          6           0       -1.202284    0.682728   -0.711328
      4          6           0       -0.327701    1.157552    0.364428
      5          1           0       -0.340876   -2.190278    0.696153
      6          1           0       -1.651688   -1.319891   -1.461001
      7          1           0       -1.651585    1.319971   -1.461021
      8          1           0       -0.340776    2.190291    0.696166
      9          6           0       -0.318070    0.000006    1.372942
     10          1           0       -1.259633    0.000034    1.941996
     11          1           0        0.533522   -0.000021    2.055174
     12          6           0        1.480356   -0.734784   -0.378513
     13          1           0        1.471901   -1.231033   -1.344407
     14          1           0        2.135684   -1.217399    0.344224
     15          6           0        1.480411    0.734706   -0.378492
     16          1           0        2.135811    1.217290    0.344349
     17          1           0        1.471994    1.231044   -1.344493
 ---------------------------------------------------------------------

 The electronic state is 1-A.
 Alpha  occ. eigenvalues --  -10.13412 -10.13327 -10.11898 -10.11803 -10.11702
 Alpha  occ. eigenvalues --  -10.11110 -10.10989  -0.85578  -0.73309  -0.69793
 Alpha  occ. eigenvalues --   -0.68828  -0.57222  -0.55144  -0.51439  -0.50712
 Alpha  occ. eigenvalues --   -0.45353  -0.43395  -0.39125  -0.37079  -0.36864
 Alpha  occ. eigenvalues --   -0.35953  -0.35140  -0.32796  -0.31219  -0.24376
 Alpha  occ. eigenvalues --   -0.21655
 Alpha virt. eigenvalues --    0.02470   0.03898   0.12749   0.15286   0.15434
 Alpha virt. eigenvalues --    0.15923   0.18464   0.18865   0.19482   0.20061
 Alpha virt. eigenvalues --    0.21373   0.21434   0.24039   0.24956   0.27151

 Mulliken charges:
               1
     1  C   -0.233627
     2  C   -0.142328
     3  C   -0.142327
     4  C   -0.233621
     5  H    0.168896
     6  H    0.172939
     7  H    0.172939
     8  H    0.168896
     9  C   -0.345007
    10  H    0.206991
    11  H    0.187473
    12  C   -0.369021
    13  H    0.191258
    14  H    0.187165
    15  C   -0.368988
    16  H    0.187139
    17  H    0.191223
 Sum of Mulliken charges =  -0.00000

 Dipole moment (field-independent basis, Debye):
    X=              0.2402    Y=             -0.0001    Z=              0.1469  Tot=              0.2816
 Quadrupole moment (field-independent basis, Debye-Ang):
   XX=            -45.0188   YY=            -41.4472   ZZ=            -41.9598
   XY=             -0.0001   XZ=              1.4952   YZ=              0.0000

 Normal termination of Gaussian 16 at Sun Oct 20 19:27:29 2019.
