 Gaussian 16, Revision B.01,
 Gaussian 16:  ES64L-G16RevB.01 20-Dec-2017

 ------------------------------------------------
 # opt=modredundant b3lyp/3-21g geom=connectivity
 ------------------------------------------------

 -------------------
 Title Card Required
 -------------------
 Symbolic Z-matrix:
 Charge =  0 Multiplicity = 1

 SCF Done:  E(RB3LYP) =  -271.016619591     A.U. after   15 cycles
 SCF Done:  E(RB3LYP) =  -271.073998525     A.U. after   14 cycles
 SCF Done:  E(RB3LYP) =  -271.138272401     A.U. after   14 cycles
 SCF Done:  E(RB3LYP) =  -271.168152169     A.U. after   13 cycles
 SCF Done:  E(RB3LYP) =  -271.184689482     A.U. after   13 cycles
 SCF Done:  E(RB3LYP) =  -271.185869945     A.U. after   11 cycles
 SCF Done:  E(RB3LYP) =  -271.186110850     A.U. after   10 cycles
 SCF Done:  E(RB3LYP) =  -271.186140742     A.U. after    9 cycles
 SCF Done:  E(RB3LYP) =  -271.186145841     A.U. after    9 cycles
 SCF Done:  E(RB3LYP) =  -271.186147207     A.U. after    8 cycles
 Optimization completed.
    -- Stationary point found.

                         Standard orientation:
 ---------------------------------------------------------------------
 Center     Atomic      Atomic             Coordinates (Angstroms)
 Number     Number       Type             X           Y           Z
 ---------------------------------------------------------------------
      1          6           0       -0.383953   -1.161006    0.363360
      2          6           0       -1.189618   -0.690602   -0.731559
      3          6           0       -1.189597    0.690553   -0.731632
      4          6           0       -0.383926    1.161052    0.363242
      5          1           0       -0.371690   -2.195050    0.687371
      6          1           0       -1.602399   -1.320950   -1.507521
      7          1           0       -1.602359    1.320829   -1.507661
      8          1           0       -0.371657    2.195131    0.687146
      9          6           0       -0.347783    0.000073    1.359583
     10          1           0       -1.285520    0.000111    1.938330
     11          1           0        0.505425    0.000095    2.038098
     12          6           0        1.538026   -0.716902   -0.356895
     13          1           0        1.508664   -1.237446   -1.307910
     14          1           0        2.111700   -1.227462    0.412397
     15          6           0        1.538069    0.716830   -0.356898
     16          1           0        2.111731    1.227361    0.412464
     17          1           0        1.508803    1.237394   -1.307921
 ---------------------------------------------------------------------

 The electronic state is 1-A.
 Alpha  occ. eigenvalues --  -10.13275 -10.13197 -10.11881 -10.11509 -10.11399
 Alpha  occ. eigenvalues --  -10.11087 -10.10964  -0.85648  -0.73499  -0.69848
 Alpha  occ. eigenvalues --   -0.69085  -0.57008  -0.55160  -0.51616  -0.50878
 Alpha  occ. eigenvalues --   -0.45374  -0.43313  -0.39429  -0.37620  -0.37104
 Alpha  occ. eigenvalues --   -0.36336  -0.35185  -0.33200  -0.30967  -0.23005
 Alpha  occ. eigenvalues --   -0.21399
 Alpha virt. eigenvalues --    0.01995   0.02485   0.12667   0.14019   0.15588
 Alpha virt. eigenvalues --    0.15987   0.18246   0.18811   0.19356   0.20055
 Alpha virt. eigenvalues --    0.21273   0.21662   0.23949   0.25477   0.27650

 Mulliken charges:
               1
     1  C   -0.218138
     2  C   -0.148067
     3  C   -0.148067
     4  C   -0.218137
     5  H    0.170665
     6  H    0.172654
     7  H    0.172654
     8  H    0.170664
     9  C   -0.362928
    10  H    0.212548
    11  H    0.190185
    12  C   -0.374656
    13  H    0.191085
    14  H    0.186559
    15  C   -0.374651
    16  H    0.186550
    17  H    0.191081
 Sum of Mulliken charges =   0.00000

 Dipole moment (field-independent basis, Debye):
    X=              0.1412    Y=             -0.0000    Z=              0.2550  Tot=              0.2915
 Quadrupole moment (field-independent basis, Debye-Ang):
   XX=            -45.6253   YY=            -41.1382   ZZ=            -41.5381
   XY=              0.0001   XZ=              1.5987   YZ=             -0.0001

 Normal termination of Gaussian 16 at Sun Oct 20 19:27:07 2019.
