 Gaussian 16, Revision B.01,
 Gaussian 16:  ES64L-G16RevB.01 20-Dec-2017

 ------------------------------------------------
 # opt=modredundant b3lyp/3-21g geom=connectivity
 ------------------------------------------------

 -------------------
 Title Card Required
 -------------------
 Symbolic Z-matrix:
 Charge =  0 Multiplicity = 1

 SCF Done:  E(RB3LYP) =  -271.055109741     A.U. after   14 cycles
 SCF Done:  E(RB3LYP) =  -271.101172958     A.U. after   14 cycles
 SCF Done:  E(RB3LYP) =  -271.137379314     A.U. after   14 cycles
 SCF Done:  E(RB3LYP) =  -271.161027882     A.U. after   15 cycles
 SCF Done:  E(RB3LYP) =  -271.175941318     A.U. after   13 cycles
 SCF Done:  E(RB3LYP) =  -271.177842076     A.U. after   12 cycles
 SCF Done:  E(RB3LYP) =  -271.178779946     A.U. after   12 cycles
 SCF Done:  E(RB3LYP) =  -271.179182907     A.U. after   11 cycles
 SCF Done:  E(RB3LYP) =  -271.179354621     A.U. after   11 cycles
 SCF Done:  E(RB3LYP) =  -271.179420151     A.U. after   11 cycles
 SCF Done:  E(RB3LYP) =  -271.179445594     A.U. after   10 cycles
 SCF Done:  E(RB3LYP) =  -271.179454896     A.U. after    9 cycles
 SCF Done:  E(RB3LYP) =  -271.179456685     A.U. after   12 cycles
 Optimization completed.
    -- Stationary point found.

                         Standard orientation:
 ---------------------------------------------------------------------
 Center     Atomic      Atomic             Coordinates (Angstroms)
 Number     Number       Type             X           Y           Z
 ---------------------------------------------------------------------
      1          6           0       -0.438928   -1.164648    0.362439
      2          6           0       -1.179220   -0.700752   -0.745871
      3          6           0       -1.179251    0.700704   -0.745885
      4          6           0       -0.438964    1.164649    0.362404
      5          1           0       -0.393433   -2.199477    0.677296
      6          1           0       -1.564347   -1.325164   -1.540463
      7          1           0       -1.564406    1.325083   -1.540490
      8          1           0       -0.393487    2.199488    0.677228
      9          6           0       -0.365815    0.000016    1.345734
     10          1           0       -1.291307    0.000008    1.946374
     11          1           0        0.497235    0.000050    2.010260
     12          6           0        1.593059   -0.699485   -0.340876
     13          1           0        1.527602   -1.241758   -1.276133
     14          1           0        2.075523   -1.237109    0.469755
     15          6           0        1.593047    0.699509   -0.340858
     16          1           0        2.075447    1.237053    0.469778
     17          1           0        1.527599    1.241868   -1.276126
 ---------------------------------------------------------------------

 The electronic state is 1-A.
 Alpha  occ. eigenvalues --  -10.13013 -10.12943 -10.12057 -10.11122 -10.10998
 Alpha  occ. eigenvalues --  -10.10943 -10.10832  -0.85755  -0.73695  -0.69876
 Alpha  occ. eigenvalues --   -0.69471  -0.56785  -0.55181  -0.51832  -0.51082
 Alpha  occ. eigenvalues --   -0.45489  -0.43201  -0.39847  -0.38293  -0.37120
 Alpha  occ. eigenvalues --   -0.36612  -0.35255  -0.33454  -0.30747  -0.22077
 Alpha  occ. eigenvalues --   -0.21424
 Alpha virt. eigenvalues --    0.00730   0.02797   0.12519   0.13097   0.15614
 Alpha virt. eigenvalues --    0.16187   0.17910   0.18695   0.19246   0.19967
 Alpha virt. eigenvalues --    0.21119   0.22015   0.23723   0.25965   0.28122

 Mulliken charges:
               1
     1  C   -0.205074
     2  C   -0.153224
     3  C   -0.153223
     4  C   -0.205076
     5  H    0.172893
     6  H    0.172582
     7  H    0.172582
     8  H    0.172893
     9  C   -0.381763
    10  H    0.218844
    11  H    0.193159
    12  C   -0.376962
    13  H    0.190190
    14  H    0.184476
    15  C   -0.376964
    16  H    0.184491
    17  H    0.190177
 Sum of Mulliken charges =  -0.00000

 Dipole moment (field-independent basis, Debye):
    X=             -0.0177    Y=             -0.0000    Z=              0.3666  Tot=              0.3670
 Quadrupole moment (field-independent basis, Debye-Ang):
   XX=            -46.4088   YY=            -40.8007   ZZ=            -41.1317
   XY=             -0.0001   XZ=              1.7567   YZ=             -0.0000

 Normal termination of Gaussian 16 at Sun Oct 20 19:26:58 2019.
