 Gaussian 16, Revision B.01,
 Gaussian 16:  ES64L-G16RevB.01 20-Dec-2017

 ------------------------------------------------
 # opt=modredundant b3lyp/3-21g geom=connectivity
 ------------------------------------------------

 -------------------
 Title Card Required
 -------------------
 Symbolic Z-matrix:
 Charge =  0 Multiplicity = 1

 SCF Done:  E(RB3LYP) =  -271.088960569     A.U. after   13 cycles
 SCF Done:  E(RB3LYP) =  -271.126218041     A.U. after   13 cycles
 SCF Done:  E(RB3LYP) =  -271.160257528     A.U. after   14 cycles
 SCF Done:  E(RB3LYP) =  -271.172004065     A.U. after   13 cycles
 SCF Done:  E(RB3LYP) =  -271.176514250     A.U. after   13 cycles
 SCF Done:  E(RB3LYP) =  -271.177230388     A.U. after   11 cycles
 SCF Done:  E(RB3LYP) =  -271.177780383     A.U. after   11 cycles
 SCF Done:  E(RB3LYP) =  -271.177951549     A.U. after   11 cycles
 SCF Done:  E(RB3LYP) =  -271.177991773     A.U. after    9 cycles
 SCF Done:  E(RB3LYP) =  -271.178012398     A.U. after    9 cycles
 SCF Done:  E(RB3LYP) =  -271.178020657     A.U. after    9 cycles
 SCF Done:  E(RB3LYP) =  -271.178023856     A.U. after    9 cycles
 SCF Done:  E(RB3LYP) =  -271.178024267     A.U. after    8 cycles
 Optimization completed.
    -- Stationary point found.

                         Standard orientation:
 ---------------------------------------------------------------------
 Center     Atomic      Atomic             Coordinates (Angstroms)
 Number     Number       Type             X           Y           Z
 ---------------------------------------------------------------------
      1          6           0       -0.493475   -1.168747    0.362101
      2          6           0       -1.166924   -0.710886   -0.764004
      3          6           0       -1.166950    0.710833   -0.764027
      4          6           0       -0.493503    1.168754    0.362053
      5          1           0       -0.421189   -2.202879    0.671342
      6          1           0       -1.526081   -1.330435   -1.574287
      7          1           0       -1.526130    1.330341   -1.574330
      8          1           0       -0.421230    2.202901    0.671247
      9          6           0       -0.389707    0.000026    1.332756
     10          1           0       -1.302441    0.000025    1.954550
     11          1           0        0.482599    0.000056    1.984109
     12          6           0        1.648937   -0.686393   -0.321568
     13          1           0        1.550012   -1.243009   -1.244639
     14          1           0        2.045346   -1.243325    0.521120
     15          6           0        1.648924    0.686406   -0.321574
     16          1           0        2.045305    1.243330    0.521109
     17          1           0        1.549995    1.243029   -1.244640
 ---------------------------------------------------------------------

 The electronic state is 1-A.
 Alpha  occ. eigenvalues --  -10.12744 -10.12684 -10.12199 -10.11216 -10.11093
 Alpha  occ. eigenvalues --  -10.10432 -10.10323  -0.85803  -0.73823  -0.69905
 Alpha  occ. eigenvalues --   -0.69825  -0.56574  -0.55182  -0.52067  -0.51251
 Alpha  occ. eigenvalues --   -0.45571  -0.43133  -0.40124  -0.38898  -0.37263
 Alpha  occ. eigenvalues --   -0.36562  -0.35362  -0.33543  -0.30550  -0.21725
 Alpha  occ. eigenvalues --   -0.21643
 Alpha virt. eigenvalues --    0.00018   0.03301   0.12291   0.12371   0.15573
 Alpha virt. eigenvalues --    0.16405   0.17600   0.18476   0.19199   0.19827
 Alpha virt. eigenvalues --    0.20948   0.22372   0.23397   0.26254   0.28487

 Mulliken charges:
               1
     1  C   -0.192803
     2  C   -0.158214
     3  C   -0.158214
     4  C   -0.192804
     5  H    0.174860
     6  H    0.172903
     7  H    0.172902
     8  H    0.174860
     9  C   -0.400117
    10  H    0.224171
    11  H    0.196493
    12  C   -0.375801
    13  H    0.188074
    14  H    0.180709
    15  C   -0.375804
    16  H    0.180712
    17  H    0.188074
 Sum of Mulliken charges =  -0.00000

 Dipole moment (field-independent basis, Debye):
    X=             -0.1963    Y=              0.0000    Z=              0.4495  Tot=              0.4905
 Quadrupole moment (field-independent basis, Debye-Ang):
   XX=            -47.1640   YY=            -40.5521   ZZ=            -40.7621
   XY=             -0.0000   XZ=              1.8521   YZ=              0.0000

 Normal termination of Gaussian 16 at Sun Oct 20 19:25:57 2019.
