 Gaussian 16, Revision B.01,
 Gaussian 16:  ES64L-G16RevB.01 20-Dec-2017

 ------------------------------------------------
 # opt=modredundant b3lyp/3-21g geom=connectivity
 ------------------------------------------------

 -------------------
 Title Card Required
 -------------------
 Symbolic Z-matrix:
 Charge =  0 Multiplicity = 1

 SCF Done:  E(RB3LYP) =  -271.118084561     A.U. after   14 cycles
 SCF Done:  E(RB3LYP) =  -271.146886973     A.U. after   13 cycles
 SCF Done:  E(RB3LYP) =  -271.166195516     A.U. after   13 cycles
 SCF Done:  E(RB3LYP) =  -271.175618357     A.U. after   12 cycles
 SCF Done:  E(RB3LYP) =  -271.178855437     A.U. after   13 cycles
 SCF Done:  E(RB3LYP) =  -271.179233689     A.U. after   11 cycles
 SCF Done:  E(RB3LYP) =  -271.179480361     A.U. after   11 cycles
 SCF Done:  E(RB3LYP) =  -271.179592861     A.U. after   11 cycles
 SCF Done:  E(RB3LYP) =  -271.179670981     A.U. after   11 cycles
 SCF Done:  E(RB3LYP) =  -271.179699764     A.U. after   12 cycles
 SCF Done:  E(RB3LYP) =  -271.179701923     A.U. after    8 cycles
 SCF Done:  E(RB3LYP) =  -271.179702426     A.U. after    7 cycles
 Optimization completed.
    -- Stationary point found.

                         Standard orientation:
 ---------------------------------------------------------------------
 Center     Atomic      Atomic             Coordinates (Angstroms)
 Number     Number       Type             X           Y           Z
 ---------------------------------------------------------------------
      1          6           0       -0.547296   -1.172744    0.361033
      2          6           0       -1.153362   -0.718872   -0.787504
      3          6           0       -1.153348    0.718817   -0.787572
      4          6           0       -0.547282    1.172782    0.360928
      5          1           0       -0.460417   -2.205654    0.668755
      6          1           0       -1.486273   -1.335094   -1.611320
      7          1           0       -1.486242    1.334968   -1.611449
      8          1           0       -0.460375    2.205718    0.668556
      9          6           0       -0.425321    0.000060    1.321660
     10          1           0       -1.327492    0.000093    1.959673
     11          1           0        0.453939    0.000089    1.963287
     12          6           0        1.707202   -0.678197   -0.296738
     13          1           0        1.588199   -1.242272   -1.212775
     14          1           0        2.031711   -1.246261    0.568721
     15          6           0        1.707233    0.678150   -0.296720
     16          1           0        2.031748    1.246166    0.568767
     17          1           0        1.588248    1.242262   -1.212738
 ---------------------------------------------------------------------

 The electronic state is 1-A.
 Alpha  occ. eigenvalues --  -10.12529 -10.12482 -10.12285 -10.11340 -10.11219
 Alpha  occ. eigenvalues --  -10.10105 -10.09999  -0.85770  -0.73896  -0.70057
 Alpha  occ. eigenvalues --   -0.69933  -0.56404  -0.55164  -0.52269  -0.51351
 Alpha  occ. eigenvalues --   -0.45599  -0.43118  -0.40257  -0.39329  -0.37422
 Alpha  occ. eigenvalues --   -0.36392  -0.35459  -0.33557  -0.30391  -0.22162
 Alpha  occ. eigenvalues --   -0.21494
 Alpha virt. eigenvalues --   -0.00363   0.03772   0.11560   0.12277   0.15508
 Alpha virt. eigenvalues --    0.16574   0.17423   0.18253   0.19192   0.19697
 Alpha virt. eigenvalues --    0.20764   0.22665   0.23061   0.26345   0.28723

 Mulliken charges:
               1
     1  C   -0.181521
     2  C   -0.163153
     3  C   -0.163153
     4  C   -0.181521
     5  H    0.176105
     6  H    0.173457
     7  H    0.173456
     8  H    0.176105
     9  C   -0.415914
    10  H    0.227646
    11  H    0.199991
    12  C   -0.372959
    13  H    0.185590
    14  H    0.176622
    15  C   -0.372964
    16  H    0.176620
    17  H    0.185591
 Sum of Mulliken charges =   0.00000

 Dipole moment (field-independent basis, Debye):
    X=             -0.3423    Y=              0.0000    Z=              0.4929  Tot=              0.6001
 Quadrupole moment (field-independent basis, Debye-Ang):
   XX=            -47.7334   YY=            -40.4117   ZZ=            -40.4451
   XY=              0.0001   XZ=              1.8322   YZ=             -0.0000

 Normal termination of Gaussian 16 at Sun Oct 20 19:23:45 2019.
