 Gaussian 16, Revision B.01,
 Gaussian 16:  ES64L-G16RevB.01 20-Dec-2017

 ------------------------------------------------
 # opt=modredundant b3lyp/3-21g geom=connectivity
 ------------------------------------------------

 -------------------
 Title Card Required
 -------------------
 Symbolic Z-matrix:
 Charge =  0 Multiplicity = 1

 SCF Done:  E(RB3LYP) =  -271.142392153     A.U. after   14 cycles
 SCF Done:  E(RB3LYP) =  -271.163442324     A.U. after   13 cycles
 SCF Done:  E(RB3LYP) =  -271.174922856     A.U. after   13 cycles
 SCF Done:  E(RB3LYP) =  -271.181147619     A.U. after   12 cycles
 SCF Done:  E(RB3LYP) =  -271.182141135     A.U. after   12 cycles
 SCF Done:  E(RB3LYP) =  -271.182295767     A.U. after    9 cycles
 SCF Done:  E(RB3LYP) =  -271.182426888     A.U. after   10 cycles
 SCF Done:  E(RB3LYP) =  -271.182496800     A.U. after   10 cycles
 SCF Done:  E(RB3LYP) =  -271.182553799     A.U. after   10 cycles
 SCF Done:  E(RB3LYP) =  -271.182567813     A.U. after    9 cycles
 SCF Done:  E(RB3LYP) =  -271.182571010     A.U. after    9 cycles
 SCF Done:  E(RB3LYP) =  -271.182571947     A.U. after    8 cycles
 SCF Done:  E(RB3LYP) =  -271.182572479     A.U. after    8 cycles
 SCF Done:  E(RB3LYP) =  -271.182572688     A.U. after    7 cycles
 Optimization completed.
    -- Stationary point found.

                         Standard orientation:
 ---------------------------------------------------------------------
 Center     Atomic      Atomic             Coordinates (Angstroms)
 Number     Number       Type             X           Y           Z
 ---------------------------------------------------------------------
      1          6           0       -0.600294   -1.176426    0.357730
      2          6           0       -1.138722   -0.724234   -0.814436
      3          6           0       -1.138748    0.724968   -0.813706
      4          6           0       -0.600298    1.176018    0.358903
      5          1           0       -0.509970   -2.208349    0.666703
      6          1           0       -1.442807   -1.337542   -1.651423
      7          1           0       -1.442907    1.339114   -1.650052
      8          1           0       -0.510407    2.207645    0.669008
      9          6           0       -0.471485   -0.000670    1.312122
     10          1           0       -1.364815   -0.000943    1.962490
     11          1           0        0.413797   -0.001077    1.945610
     12          6           0        1.767293   -0.672980   -0.267631
     13          1           0        1.636445   -1.241434   -1.179523
     14          1           0        2.037986   -1.246145    0.612988
     15          6           0        1.767110    0.673384   -0.267784
     16          1           0        2.037402    1.246774    0.612813
     17          1           0        1.636128    1.241588   -1.179806
 ---------------------------------------------------------------------

 The electronic state is 1-A.
 Alpha  occ. eigenvalues --  -10.12363 -10.12357 -10.12278 -10.11455 -10.11336
 Alpha  occ. eigenvalues --  -10.09957 -10.09855  -0.85691  -0.73961  -0.70185
 Alpha  occ. eigenvalues --   -0.69949  -0.56287  -0.55129  -0.52420  -0.51392
 Alpha  occ. eigenvalues --   -0.45592  -0.43154  -0.40343  -0.39609  -0.37507
 Alpha  occ. eigenvalues --   -0.36224  -0.35517  -0.33572  -0.30267  -0.22634
 Alpha  occ. eigenvalues --   -0.21455
 Alpha virt. eigenvalues --   -0.00577   0.04097   0.10948   0.12245   0.15425
 Alpha virt. eigenvalues --    0.16690   0.17393   0.18085   0.19208   0.19604
 Alpha virt. eigenvalues --    0.20575   0.22752   0.22872   0.26318   0.28852

 Mulliken charges:
               1
     1  C   -0.172331
     2  C   -0.167708
     3  C   -0.167717
     4  C   -0.172328
     5  H    0.176732
     6  H    0.173972
     7  H    0.173977
     8  H    0.176724
     9  C   -0.428136
    10  H    0.229296
    11  H    0.203557
    12  C   -0.370025
    13  H    0.183655
    14  H    0.173324
    15  C   -0.369992
    16  H    0.173342
    17  H    0.183657
 Sum of Mulliken charges =  -0.00000

 Dipole moment (field-independent basis, Debye):
    X=             -0.4346    Y=             -0.0001    Z=              0.5058  Tot=              0.6669
 Quadrupole moment (field-independent basis, Debye-Ang):
   XX=            -48.1228   YY=            -40.3417   ZZ=            -40.1783
   XY=             -0.0019   XZ=              1.7249   YZ=              0.0000

 Normal termination of Gaussian 16 at Sun Oct 20 19:22:35 2019.
