 Gaussian 16, Revision B.01,
 Gaussian 16:  ES64L-G16RevB.01 20-Dec-2017

 ------------------------------------------------
 # opt=modredundant b3lyp/3-21g geom=connectivity
 ------------------------------------------------

 -------------------
 Title Card Required
 -------------------
 Symbolic Z-matrix:
 Charge =  0 Multiplicity = 1

 SCF Done:  E(RB3LYP) =  -271.162003725     A.U. after   13 cycles
 SCF Done:  E(RB3LYP) =  -271.175417427     A.U. after   14 cycles
 SCF Done:  E(RB3LYP) =  -271.181853504     A.U. after   12 cycles
 SCF Done:  E(RB3LYP) =  -271.185084619     A.U. after   12 cycles
 SCF Done:  E(RB3LYP) =  -271.185368081     A.U. after   11 cycles
 SCF Done:  E(RB3LYP) =  -271.185449326     A.U. after    9 cycles
 SCF Done:  E(RB3LYP) =  -271.185520674     A.U. after   10 cycles
 SCF Done:  E(RB3LYP) =  -271.185557830     A.U. after   10 cycles
 SCF Done:  E(RB3LYP) =  -271.185588405     A.U. after   10 cycles
 SCF Done:  E(RB3LYP) =  -271.185594450     A.U. after    9 cycles
 SCF Done:  E(RB3LYP) =  -271.185596659     A.U. after    8 cycles
 SCF Done:  E(RB3LYP) =  -271.185597453     A.U. after    8 cycles
 SCF Done:  E(RB3LYP) =  -271.185597795     A.U. after    7 cycles
 SCF Done:  E(RB3LYP) =  -271.185598099     A.U. after    7 cycles
 SCF Done:  E(RB3LYP) =  -271.185598230     A.U. after    7 cycles
 Optimization completed.
    -- Stationary point found.

                         Standard orientation:
 ---------------------------------------------------------------------
 Center     Atomic      Atomic             Coordinates (Angstroms)
 Number     Number       Type             X           Y           Z
 ---------------------------------------------------------------------
      1          6           0       -0.651850   -1.179078    0.353960
      2          6           0       -1.126735   -0.728466   -0.839569
      3          6           0       -1.126693    0.728978   -0.839136
      4          6           0       -0.651722    1.178854    0.354642
      5          1           0       -0.563962   -2.210089    0.666045
      6          1           0       -1.402427   -1.340271   -1.687402
      7          1           0       -1.402330    1.341301   -1.686613
      8          1           0       -0.564055    2.209688    0.667387
      9          6           0       -0.521252   -0.000377    1.303606
     10          1           0       -1.405098   -0.000484    1.966210
     11          1           0        0.371526   -0.000647    1.927327
     12          6           0        1.828062   -0.670032   -0.238415
     13          1           0        1.691985   -1.240541   -1.148581
     14          1           0        2.057847   -1.245798    0.652339
     15          6           0        1.828082    0.670171   -0.238496
     16          1           0        2.057216    1.245934    0.652426
     17          1           0        1.691946    1.240609   -1.148685
 ---------------------------------------------------------------------

 The electronic state is 1-A.
 Alpha  occ. eigenvalues --  -10.12347 -10.12214 -10.12163 -10.11546 -10.11428
 Alpha  occ. eigenvalues --  -10.09943 -10.09842  -0.85594  -0.74049  -0.70245
 Alpha  occ. eigenvalues --   -0.69945  -0.56234  -0.55084  -0.52519  -0.51395
 Alpha  occ. eigenvalues --   -0.45593  -0.43196  -0.40437  -0.39785  -0.37535
 Alpha  occ. eigenvalues --   -0.36077  -0.35537  -0.33615  -0.30164  -0.23101
 Alpha  occ. eigenvalues --   -0.21445
 Alpha virt. eigenvalues --   -0.00694   0.04261   0.10478   0.12250   0.15335
 Alpha virt. eigenvalues --    0.16738   0.17449   0.17985   0.19238   0.19547
 Alpha virt. eigenvalues --    0.20405   0.22475   0.22998   0.26248   0.28899

 Mulliken charges:
               1
     1  C   -0.165627
     2  C   -0.171582
     3  C   -0.171584
     4  C   -0.165628
     5  H    0.177015
     6  H    0.174371
     7  H    0.174372
     8  H    0.177009
     9  C   -0.437114
    10  H    0.229521
    11  H    0.207003
    12  C   -0.367554
    13  H    0.182431
    14  H    0.171236
    15  C   -0.367552
    16  H    0.171243
    17  H    0.182441
 Sum of Mulliken charges =  -0.00000

 Dipole moment (field-independent basis, Debye):
    X=             -0.4729    Y=             -0.0001    Z=              0.5000  Tot=              0.6882
 Quadrupole moment (field-independent basis, Debye-Ang):
   XX=            -48.3750   YY=            -40.3055   ZZ=            -39.9626
   XY=             -0.0013   XZ=              1.5761   YZ=             -0.0002

 Normal termination of Gaussian 16 at Sun Oct 20 19:21:11 2019.
