 Gaussian 16, Revision B.01,
 Gaussian 16:  ES64L-G16RevB.01 20-Dec-2017

 ------------------------------------------------
 # opt=modredundant b3lyp/3-21g geom=connectivity
 ------------------------------------------------

 -------------------
 Title Card Required
 -------------------
 Symbolic Z-matrix:
 Charge =  0 Multiplicity = 1

 SCF Done:  E(RB3LYP) =  -271.177127910     A.U. after   13 cycles
 SCF Done:  E(RB3LYP) =  -271.184048842     A.U. after   12 cycles
 SCF Done:  E(RB3LYP) =  -271.186949653     A.U. after   12 cycles
 SCF Done:  E(RB3LYP) =  -271.188137058     A.U. after   11 cycles
 SCF Done:  E(RB3LYP) =  -271.188252481     A.U. after    9 cycles
 SCF Done:  E(RB3LYP) =  -271.188293127     A.U. after    9 cycles
 SCF Done:  E(RB3LYP) =  -271.188308977     A.U. after    9 cycles
 SCF Done:  E(RB3LYP) =  -271.188334003     A.U. after    9 cycles
 SCF Done:  E(RB3LYP) =  -271.188349324     A.U. after    9 cycles
 SCF Done:  E(RB3LYP) =  -271.188353767     A.U. after    8 cycles
 SCF Done:  E(RB3LYP) =  -271.188355564     A.U. after    8 cycles
 SCF Done:  E(RB3LYP) =  -271.188356683     A.U. after    8 cycles
 SCF Done:  E(RB3LYP) =  -271.188356987     A.U. after    8 cycles
 SCF Done:  E(RB3LYP) =  -271.188357249     A.U. after    7 cycles
 SCF Done:  E(RB3LYP) =  -271.188357387     A.U. after    7 cycles
 SCF Done:  E(RB3LYP) =  -271.188357428     A.U. after    7 cycles
 Optimization completed.
    -- Stationary point found.

                         Standard orientation:
 ---------------------------------------------------------------------
 Center     Atomic      Atomic             Coordinates (Angstroms)
 Number     Number       Type             X           Y           Z
 ---------------------------------------------------------------------
      1          6           0       -0.701720   -1.181185    0.349019
      2          6           0       -1.117707   -0.731353   -0.862471
      3          6           0       -1.117568    0.732080   -0.861949
      4          6           0       -0.701461    1.180967    0.349853
      5          1           0       -0.619969   -2.211602    0.664368
      6          1           0       -1.365593   -1.341798   -1.719811
      7          1           0       -1.365277    1.343180   -1.718874
      8          1           0       -0.619638    2.211154    0.665942
      9          6           0       -0.572511   -0.000439    1.295930
     10          1           0       -1.445880   -0.000558    1.971231
     11          1           0        0.329299   -0.000771    1.907880
     12          6           0        1.889359   -0.668162   -0.210549
     13          1           0        1.748720   -1.239790   -1.119648
     14          1           0        2.091413   -1.245007    0.686490
     15          6           0        1.889474    0.668168   -0.210588
     16          1           0        2.090836    1.244948    0.686645
     17          1           0        1.748893    1.239789   -1.119691
 ---------------------------------------------------------------------

 The electronic state is 1-A.
 Alpha  occ. eigenvalues --  -10.12326 -10.12093 -10.12052 -10.11612 -10.11495
 Alpha  occ. eigenvalues --  -10.10016 -10.09917  -0.85493  -0.74162  -0.70264
 Alpha  occ. eigenvalues --   -0.69924  -0.56238  -0.55033  -0.52577  -0.51375
 Alpha  occ. eigenvalues --   -0.45608  -0.43238  -0.40553  -0.39892  -0.37528
 Alpha  occ. eigenvalues --   -0.35949  -0.35530  -0.33689  -0.30070  -0.23549
 Alpha  occ. eigenvalues --   -0.21437
 Alpha virt. eigenvalues --   -0.00751   0.04286   0.10141   0.12290   0.15241
 Alpha virt. eigenvalues --    0.16730   0.17563   0.17946   0.19276   0.19519
 Alpha virt. eigenvalues --    0.20252   0.22227   0.23024   0.26169   0.28887

 Mulliken charges:
               1
     1  C   -0.161280
     2  C   -0.174722
     3  C   -0.174718
     4  C   -0.161280
     5  H    0.177121
     6  H    0.174632
     7  H    0.174633
     8  H    0.177119
     9  C   -0.443411
    10  H    0.228702
    11  H    0.210406
    12  C   -0.365819
    13  H    0.181965
    14  H    0.170250
    15  C   -0.365821
    16  H    0.170254
    17  H    0.181970
 Sum of Mulliken charges =  -0.00000

 Dipole moment (field-independent basis, Debye):
    X=             -0.4682    Y=             -0.0001    Z=              0.4853  Tot=              0.6743
 Quadrupole moment (field-independent basis, Debye-Ang):
   XX=            -48.5290   YY=            -40.2845   ZZ=            -39.7933
   XY=             -0.0006   XZ=              1.4197   YZ=             -0.0003

 Normal termination of Gaussian 16 at Sun Oct 20 19:20:53 2019.
