 Gaussian 16, Revision B.01,
 Gaussian 16:  ES64L-G16RevB.01 20-Dec-2017

 ------------------------------------------------
 # opt=modredundant b3lyp/3-21g geom=connectivity
 ------------------------------------------------

 -------------------
 Title Card Required
 -------------------
 Symbolic Z-matrix:
 Charge =  0 Multiplicity = 1

 SCF Done:  E(RB3LYP) =  -271.187651544     A.U. after   13 cycles
 SCF Done:  E(RB3LYP) =  -271.190362556     A.U. after   12 cycles
 SCF Done:  E(RB3LYP) =  -271.190454717     A.U. after   11 cycles
 SCF Done:  E(RB3LYP) =  -271.190673060     A.U. after   11 cycles
 SCF Done:  E(RB3LYP) =  -271.190700346     A.U. after    9 cycles
 SCF Done:  E(RB3LYP) =  -271.190705836     A.U. after    8 cycles
 SCF Done:  E(RB3LYP) =  -271.190710125     A.U. after    8 cycles
 SCF Done:  E(RB3LYP) =  -271.190717665     A.U. after    8 cycles
 SCF Done:  E(RB3LYP) =  -271.190724179     A.U. after    9 cycles
 SCF Done:  E(RB3LYP) =  -271.190725839     A.U. after    8 cycles
 SCF Done:  E(RB3LYP) =  -271.190726217     A.U. after    8 cycles
 Optimization completed.
    -- Stationary point found.

                         Standard orientation:
 ---------------------------------------------------------------------
 Center     Atomic      Atomic             Coordinates (Angstroms)
 Number     Number       Type             X           Y           Z
 ---------------------------------------------------------------------
      1          6           0       -0.748867   -1.182389    0.345782
      2          6           0       -1.115207   -0.734466   -0.879657
      3          6           0       -1.115157    0.733458   -0.880605
      4          6           0       -0.748618    1.182927    0.344205
      5          1           0       -0.673720   -2.212054    0.665011
      6          1           0       -1.338879   -1.344788   -1.743727
      7          1           0       -1.338747    1.342674   -1.745477
      8          1           0       -0.673233    2.212997    0.662071
      9          6           0       -0.620122    0.000883    1.289502
     10          1           0       -1.479687    0.001417    1.980876
     11          1           0        0.294263    0.001246    1.884010
     12          6           0        1.951114   -0.667209   -0.187785
     13          1           0        1.797869   -1.239337   -1.094778
     14          1           0        2.142553   -1.244319    0.711698
     15          6           0        1.951505    0.666716   -0.187643
     16          1           0        2.143150    1.243486    0.712013
     17          1           0        1.798545    1.239150   -1.094486
 ---------------------------------------------------------------------

 The electronic state is 1-A.
 Alpha  occ. eigenvalues --  -10.12288 -10.11990 -10.11956 -10.11658 -10.11541
 Alpha  occ. eigenvalues --  -10.10149 -10.10050  -0.85398  -0.74300  -0.70261
 Alpha  occ. eigenvalues --   -0.69888  -0.56292  -0.54979  -0.52602  -0.51341
 Alpha  occ. eigenvalues --   -0.45644  -0.43280  -0.40692  -0.39956  -0.37496
 Alpha  occ. eigenvalues --   -0.35834  -0.35506  -0.33792  -0.29972  -0.23985
 Alpha  occ. eigenvalues --   -0.21421
 Alpha virt. eigenvalues --   -0.00769   0.04192   0.09916   0.12369   0.15151
 Alpha virt. eigenvalues --    0.16683   0.17708   0.17955   0.19317   0.19510
 Alpha virt. eigenvalues --    0.20116   0.22009   0.22938   0.26100   0.28830

 Mulliken charges:
               1
     1  C   -0.158838
     2  C   -0.177322
     3  C   -0.177325
     4  C   -0.158827
     5  H    0.177157
     6  H    0.174791
     7  H    0.174788
     8  H    0.177156
     9  C   -0.447713
    10  H    0.227123
    11  H    0.213936
    12  C   -0.364882
    13  H    0.182284
    14  H    0.170167
    15  C   -0.364935
    16  H    0.170153
    17  H    0.182288
 Sum of Mulliken charges =  -0.00000

 Dipole moment (field-independent basis, Debye):
    X=             -0.4280    Y=              0.0002    Z=              0.4686  Tot=              0.6346
 Quadrupole moment (field-independent basis, Debye-Ang):
   XX=            -48.6031   YY=            -40.2688   ZZ=            -39.6800
   XY=              0.0016   XZ=              1.3105   YZ=              0.0004

 Normal termination of Gaussian 16 at Sun Oct 20 19:19:23 2019.
