 Gaussian 16, Revision B.01,
 Gaussian 16:  ES64L-G16RevB.01 20-Dec-2017

 ------------------------------------------------
 # opt=modredundant b3lyp/3-21g geom=connectivity
 ------------------------------------------------

 -------------------
 Title Card Required
 -------------------
 Symbolic Z-matrix:
 Charge =  0 Multiplicity = 1

 SCF Done:  E(RB3LYP) =  -271.065236651     A.U. after   15 cycles
 SCF Done:  E(RB3LYP) =  -271.116557642     A.U. after   13 cycles
 SCF Done:  E(RB3LYP) =  -271.154506059     A.U. after   14 cycles
 SCF Done:  E(RB3LYP) =  -271.180169971     A.U. after   14 cycles
 SCF Done:  E(RB3LYP) =  -271.190828660     A.U. after   13 cycles
 SCF Done:  E(RB3LYP) =  -271.192182452     A.U. after   11 cycles
 SCF Done:  E(RB3LYP) =  -271.192357510     A.U. after   11 cycles
 SCF Done:  E(RB3LYP) =  -271.192435085     A.U. after   11 cycles
 SCF Done:  E(RB3LYP) =  -271.192494101     A.U. after   10 cycles
 SCF Done:  E(RB3LYP) =  -271.192582677     A.U. after   11 cycles
 SCF Done:  E(RB3LYP) =  -271.192683120     A.U. after   11 cycles
 SCF Done:  E(RB3LYP) =  -271.192709592     A.U. after   11 cycles
 SCF Done:  E(RB3LYP) =  -271.192710253     A.U. after    8 cycles
 Optimization completed.
    -- Stationary point found.

                         Standard orientation:
 ---------------------------------------------------------------------
 Center     Atomic      Atomic             Coordinates (Angstroms)
 Number     Number       Type             X           Y           Z
 ---------------------------------------------------------------------
      1          6           0       -0.793692    1.185372   -0.335690
      2          6           0       -1.119238    0.731433    0.897277
      3          6           0       -1.119089   -0.739821    0.890465
      4          6           0       -0.792932   -1.182308   -0.346523
      5          1           0       -0.724258    2.216348   -0.651778
      6          1           0       -1.323294    1.336406    1.769924
      7          1           0       -1.323127   -1.352915    1.757429
      8          1           0       -0.723300   -2.210380   -0.671910
      9          6           0       -0.663676    0.005770   -1.283827
     10          1           0       -1.509459    0.008682   -1.990906
     11          1           0        0.262871    0.009247   -1.861203
     12          6           0        2.014349    0.665590    0.169024
     13          1           0        1.847686    1.238528    1.073403
     14          1           0        2.204501    1.242055   -0.731379
     15          6           0        2.013833   -0.666841    0.169584
     16          1           0        2.204064   -1.244430   -0.730043
     17          1           0        1.846983   -1.238710    1.074604
 ---------------------------------------------------------------------

 The electronic state is 1-A.
 Alpha  occ. eigenvalues --  -10.12253 -10.11905 -10.11877 -10.11684 -10.11567
 Alpha  occ. eigenvalues --  -10.10313 -10.10215  -0.85315  -0.74449  -0.70244
 Alpha  occ. eigenvalues --   -0.69846  -0.56379  -0.54926  -0.52607  -0.51304
 Alpha  occ. eigenvalues --   -0.45706  -0.43290  -0.40843  -0.39990  -0.37458
 Alpha  occ. eigenvalues --   -0.35742  -0.35480  -0.33910  -0.29869  -0.24391
 Alpha  occ. eigenvalues --   -0.21397
 Alpha virt. eigenvalues --   -0.00756   0.04035   0.09774   0.12470   0.15075
 Alpha virt. eigenvalues --    0.16604   0.17853   0.17974   0.19355   0.19518
 Alpha virt. eigenvalues --    0.20000   0.21830   0.22747   0.26053   0.28749

 Mulliken charges:
               1
     1  C   -0.157816
     2  C   -0.179305
     3  C   -0.179323
     4  C   -0.157768
     5  H    0.177174
     6  H    0.174862
     7  H    0.174869
     8  H    0.177171
     9  C   -0.450803
    10  H    0.225414
    11  H    0.217170
    12  C   -0.364673
    13  H    0.183019
    14  H    0.170689
    15  C   -0.364450
    16  H    0.170784
    17  H    0.182986
 Sum of Mulliken charges =  -0.00000

 Dipole moment (field-independent basis, Debye):
    X=             -0.3671    Y=              0.0013    Z=             -0.4548  Tot=              0.5845
 Quadrupole moment (field-independent basis, Debye-Ang):
   XX=            -48.6201   YY=            -40.2532   ZZ=            -39.6023
   XY=              0.0025   XZ=             -1.2315   YZ=             -0.0042

 Normal termination of Gaussian 16 at Sun Oct 20 18:41:57 2019.
