 Gaussian 16, Revision B.01,
 Gaussian 16:  ES64L-G16RevB.01 20-Dec-2017

 ------------------------------------------------
 # opt=modredundant b3lyp/3-21g geom=connectivity
 ------------------------------------------------

 -------------------
 Title Card Required
 -------------------
 Symbolic Z-matrix:
 Charge =  0 Multiplicity = 1

 SCF Done:  E(RB3LYP) =  -271.098084577     A.U. after   14 cycles
 SCF Done:  E(RB3LYP) =  -271.144176838     A.U. after   13 cycles
 SCF Done:  E(RB3LYP) =  -271.185015775     A.U. after   14 cycles
 SCF Done:  E(RB3LYP) =  -271.192049563     A.U. after   14 cycles
 SCF Done:  E(RB3LYP) =  -271.193883553     A.U. after   11 cycles
 SCF Done:  E(RB3LYP) =  -271.194131448     A.U. after   10 cycles
 SCF Done:  E(RB3LYP) =  -271.194195159     A.U. after   10 cycles
 SCF Done:  E(RB3LYP) =  -271.194221523     A.U. after   12 cycles
 SCF Done:  E(RB3LYP) =  -271.194262775     A.U. after   10 cycles
 SCF Done:  E(RB3LYP) =  -271.194320711     A.U. after   11 cycles
 SCF Done:  E(RB3LYP) =  -271.194353785     A.U. after   11 cycles
 SCF Done:  E(RB3LYP) =  -271.194363067     A.U. after   10 cycles
 SCF Done:  E(RB3LYP) =  -271.194363967     A.U. after    8 cycles
 SCF Done:  E(RB3LYP) =  -271.194364610     A.U. after    8 cycles
 SCF Done:  E(RB3LYP) =  -271.194365397     A.U. after    8 cycles
 SCF Done:  E(RB3LYP) =  -271.194366275     A.U. after    8 cycles
 SCF Done:  E(RB3LYP) =  -271.194367059     A.U. after    8 cycles
 SCF Done:  E(RB3LYP) =  -271.194367407     A.U. after    7 cycles
 Optimization completed.
    -- Stationary point found.

                         Standard orientation:
 ---------------------------------------------------------------------
 Center     Atomic      Atomic             Coordinates (Angstroms)
 Number     Number       Type             X           Y           Z
 ---------------------------------------------------------------------
      1          6           0       -0.835219    1.184248   -0.340524
      2          6           0       -1.130247    0.738167    0.901792
      3          6           0       -1.130061   -0.735512    0.904050
      4          6           0       -0.835274   -1.185335   -0.336966
      5          1           0       -0.770781    2.213009   -0.664701
      6          1           0       -1.319432    1.347897    1.774496
      7          1           0       -1.319093   -1.342609    1.778623
      8          1           0       -0.770588   -2.215039   -0.658072
      9          6           0       -0.701990   -0.001911   -1.280141
     10          1           0       -1.531178   -0.002950   -2.005251
     11          1           0        0.239080   -0.002855   -1.835626
     12          6           0        2.077428    0.666080    0.157458
     13          1           0        1.875638    1.238740    1.054944
     14          1           0        2.292783    1.242357   -0.737662
     15          6           0        2.077732   -0.665512    0.157181
     16          1           0        2.293249   -1.241260   -0.738241
     17          1           0        1.876108   -1.238640    1.054389
 ---------------------------------------------------------------------

 The electronic state is 1-A.
 Alpha  occ. eigenvalues --  -10.12209 -10.11841 -10.11817 -10.11697 -10.11580
 Alpha  occ. eigenvalues --  -10.10491 -10.10393  -0.85245  -0.74605  -0.70226
 Alpha  occ. eigenvalues --   -0.69801  -0.56483  -0.54877  -0.52600  -0.51265
 Alpha  occ. eigenvalues --   -0.45781  -0.43298  -0.40993  -0.40009  -0.37419
 Alpha  occ. eigenvalues --   -0.35661  -0.35441  -0.34039  -0.29764  -0.24782
 Alpha  occ. eigenvalues --   -0.21369
 Alpha virt. eigenvalues --   -0.00732   0.03826   0.09684   0.12642   0.15015
 Alpha virt. eigenvalues --    0.16531   0.17994   0.18016   0.19386   0.19531
 Alpha virt. eigenvalues --    0.19884   0.21673   0.22397   0.26015   0.28658

 Mulliken charges:
               1
     1  C   -0.157659
     2  C   -0.181169
     3  C   -0.181158
     4  C   -0.157680
     5  H    0.177209
     6  H    0.174910
     7  H    0.174907
     8  H    0.177211
     9  C   -0.453008
    10  H    0.223512
    11  H    0.220698
    12  C   -0.364977
    13  H    0.184383
    14  H    0.171757
    15  C   -0.365059
    16  H    0.171732
    17  H    0.184393
 Sum of Mulliken charges =  -0.00000

 Dipole moment (field-independent basis, Debye):
    X=             -0.2908    Y=             -0.0004    Z=             -0.4471  Tot=              0.5333
 Quadrupole moment (field-independent basis, Debye-Ang):
   XX=            -48.5771   YY=            -40.2383   ZZ=            -39.5812
   XY=             -0.0018   XZ=             -1.2481   YZ=              0.0012

 Normal termination of Gaussian 16 at Sun Oct 20 18:42:21 2019.
