 Gaussian 16, Revision B.01,
 Gaussian 16:  ES64L-G16RevB.01 20-Dec-2017

 ------------------------------------------------
 # opt=modredundant b3lyp/3-21g geom=connectivity
 ------------------------------------------------

 -------------------
 Title Card Required
 -------------------
 Symbolic Z-matrix:
 Charge =  0 Multiplicity = 1

 SCF Done:  E(RB3LYP) =  -271.123698954     A.U. after   14 cycles
 SCF Done:  E(RB3LYP) =  -271.163689044     A.U. after   13 cycles
 SCF Done:  E(RB3LYP) =  -271.191748990     A.U. after   13 cycles
 SCF Done:  E(RB3LYP) =  -271.194862248     A.U. after   11 cycles
 SCF Done:  E(RB3LYP) =  -271.195486384     A.U. after   11 cycles
 SCF Done:  E(RB3LYP) =  -271.195575017     A.U. after   10 cycles
 SCF Done:  E(RB3LYP) =  -271.195611460     A.U. after   11 cycles
 SCF Done:  E(RB3LYP) =  -271.195628344     A.U. after    8 cycles
 SCF Done:  E(RB3LYP) =  -271.195660065     A.U. after   10 cycles
 SCF Done:  E(RB3LYP) =  -271.195687688     A.U. after   10 cycles
 SCF Done:  E(RB3LYP) =  -271.195718741     A.U. after   10 cycles
 SCF Done:  E(RB3LYP) =  -271.195749363     A.U. after   10 cycles
 SCF Done:  E(RB3LYP) =  -271.195763787     A.U. after   10 cycles
 SCF Done:  E(RB3LYP) =  -271.195765566     A.U. after    8 cycles
 SCF Done:  E(RB3LYP) =  -271.195766091     A.U. after    7 cycles
 SCF Done:  E(RB3LYP) =  -271.195766679     A.U. after    7 cycles
 SCF Done:  E(RB3LYP) =  -271.195767546     A.U. after    8 cycles
 SCF Done:  E(RB3LYP) =  -271.195768577     A.U. after   11 cycles
 SCF Done:  E(RB3LYP) =  -271.195769230     A.U. after    8 cycles
 SCF Done:  E(RB3LYP) =  -271.195769468     A.U. after    7 cycles
 Optimization completed.
    -- Stationary point found.

                         Standard orientation:
 ---------------------------------------------------------------------
 Center     Atomic      Atomic             Coordinates (Angstroms)
 Number     Number       Type             X           Y           Z
 ---------------------------------------------------------------------
      1          6           0       -0.873385    1.185781   -0.338210
      2          6           0       -1.154187    0.736520    0.905591
      3          6           0       -1.154002   -0.739351    0.903428
      4          6           0       -0.872813   -1.184875   -0.341642
      5          1           0       -0.809391    2.215358   -0.659821
      6          1           0       -1.339114    1.343249    1.781306
      7          1           0       -1.338853   -1.348729    1.777314
      8          1           0       -0.808895   -2.213546   -0.666180
      9          6           0       -0.727907    0.001750   -1.278492
     10          1           0       -1.534653    0.002639   -2.027568
     11          1           0        0.230855    0.002843   -1.804819
     12          6           0        2.142446    0.665492    0.155818
     13          1           0        1.869339    1.238000    1.034283
     14          1           0        2.422042    1.240904   -0.722223
     15          6           0        2.142595   -0.665564    0.155988
     16          1           0        2.422386   -1.241277   -0.721812
     17          1           0        1.869805   -1.237958    1.034625
 ---------------------------------------------------------------------

 The electronic state is 1-A.
 Alpha  occ. eigenvalues --  -10.12160 -10.11804 -10.11778 -10.11706 -10.11594
 Alpha  occ. eigenvalues --  -10.10667 -10.10570  -0.85200  -0.74766  -0.70216
 Alpha  occ. eigenvalues --   -0.69761  -0.56597  -0.54833  -0.52596  -0.51238
 Alpha  occ. eigenvalues --   -0.45869  -0.43289  -0.41141  -0.40025  -0.37378
 Alpha  occ. eigenvalues --   -0.35605  -0.35423  -0.34168  -0.29646  -0.25173
 Alpha  occ. eigenvalues --   -0.21345
 Alpha virt. eigenvalues --   -0.00706   0.03580   0.09611   0.12915   0.15012
 Alpha virt. eigenvalues --    0.16471   0.17975   0.18189   0.19406   0.19540
 Alpha virt. eigenvalues --    0.19779   0.21545   0.21891   0.25995   0.28581

 Mulliken charges:
               1
     1  C   -0.158189
     2  C   -0.183197
     3  C   -0.183197
     4  C   -0.158144
     5  H    0.177344
     6  H    0.174987
     7  H    0.174988
     8  H    0.177342
     9  C   -0.454832
    10  H    0.221713
    11  H    0.224770
    12  C   -0.366563
    13  H    0.186678
    14  H    0.173050
    15  C   -0.366475
    16  H    0.173065
    17  H    0.186661
 Sum of Mulliken charges =   0.00000

 Dipole moment (field-independent basis, Debye):
    X=             -0.2045    Y=              0.0003    Z=             -0.4491  Tot=              0.4935
 Quadrupole moment (field-independent basis, Debye-Ang):
   XX=            -48.4441   YY=            -40.2188   ZZ=            -39.6610
   XY=              0.0001   XZ=             -1.4315   YZ=             -0.0017

 Normal termination of Gaussian 16 at Sun Oct 20 18:37:10 2019.
