 Gaussian 16, Revision B.01,
 Gaussian 16:  ES64L-G16RevB.01 20-Dec-2017

 ------------------------------------------------
 # opt=modredundant b3lyp/3-21g geom=connectivity
 ------------------------------------------------

 -------------------
 Title Card Required
 -------------------
 Symbolic Z-matrix:
 Charge =  0 Multiplicity = 1

 SCF Done:  E(RB3LYP) =  -271.142744366     A.U. after   13 cycles
 SCF Done:  E(RB3LYP) =  -271.177782526     A.U. after   13 cycles
 SCF Done:  E(RB3LYP) =  -271.195309405     A.U. after   14 cycles
 SCF Done:  E(RB3LYP) =  -271.196318628     A.U. after   10 cycles
 SCF Done:  E(RB3LYP) =  -271.196541096     A.U. after   11 cycles
 SCF Done:  E(RB3LYP) =  -271.196634777     A.U. after   11 cycles
 SCF Done:  E(RB3LYP) =  -271.196673569     A.U. after   11 cycles
 SCF Done:  E(RB3LYP) =  -271.196713538     A.U. after   10 cycles
 SCF Done:  E(RB3LYP) =  -271.196740137     A.U. after   10 cycles
 SCF Done:  E(RB3LYP) =  -271.196762146     A.U. after   10 cycles
 SCF Done:  E(RB3LYP) =  -271.197010337     A.U. after    9 cycles
 SCF Done:  E(RB3LYP) =  -271.197010701     A.U. after    8 cycles
 SCF Done:  E(RB3LYP) =  -271.197010925     A.U. after    8 cycles
 SCF Done:  E(RB3LYP) =  -271.197011070     A.U. after    7 cycles
 SCF Done:  E(RB3LYP) =  -271.197011464     A.U. after    8 cycles
 SCF Done:  E(RB3LYP) =  -271.197011649     A.U. after    8 cycles
 SCF Done:  E(RB3LYP) =  -271.197011817     A.U. after    8 cycles
 SCF Done:  E(RB3LYP) =  -271.197011952     A.U. after    7 cycles
 SCF Done:  E(RB3LYP) =  -271.197012086     A.U. after    8 cycles
 SCF Done:  E(RB3LYP) =  -271.197012139     A.U. after    7 cycles
 Optimization completed.
    -- Stationary point found.

                         Standard orientation:
 ---------------------------------------------------------------------
 Center     Atomic      Atomic             Coordinates (Angstroms)
 Number     Number       Type             X           Y           Z
 ---------------------------------------------------------------------
      1          6           0       -0.904241    1.186277   -0.345682
      2          6           0       -1.198577    0.738530    0.895079
      3          6           0       -1.199321   -0.739169    0.894001
      4          6           0       -0.905372   -1.185412   -0.347399
      5          1           0       -0.834251    2.215380   -0.667501
      6          1           0       -1.397161    1.345638    1.767575
      7          1           0       -1.398586   -1.347359    1.765590
      8          1           0       -0.836539   -2.214138   -0.670679
      9          6           0       -0.732308    0.000989   -1.280265
     10          1           0       -1.506788    0.001926   -2.061729
     11          1           0        0.249716    0.000968   -1.763714
     12          6           0        2.210458    0.664871    0.170835
     13          1           0        1.778536    1.236551    0.983168
     14          1           0        2.645669    1.238507   -0.642990
     15          6           0        2.209287   -0.666068    0.171429
     16          1           0        2.643514   -1.241181   -0.641861
     17          1           0        1.776332   -1.236395    0.984145
 ---------------------------------------------------------------------

 The electronic state is 1-A.
 Alpha  occ. eigenvalues --  -10.12121 -10.11833 -10.11795 -10.11741 -10.11643
 Alpha  occ. eigenvalues --  -10.10807 -10.10712  -0.85206  -0.74912  -0.70258
 Alpha  occ. eigenvalues --   -0.69747  -0.56691  -0.54829  -0.52623  -0.51248
 Alpha  occ. eigenvalues --   -0.45976  -0.43265  -0.41245  -0.40080  -0.37379
 Alpha  occ. eigenvalues --   -0.35583  -0.35422  -0.34287  -0.29556  -0.25582
 Alpha  occ. eigenvalues --   -0.21352
 Alpha virt. eigenvalues --   -0.00712   0.03281   0.09507   0.13322   0.15169
 Alpha virt. eigenvalues --    0.16515   0.17862   0.18418   0.19382   0.19519
 Alpha virt. eigenvalues --    0.19671   0.21243   0.21378   0.25943   0.28588

 Mulliken charges:
               1
     1  C   -0.159262
     2  C   -0.186180
     3  C   -0.186189
     4  C   -0.159283
     5  H    0.177849
     6  H    0.175448
     7  H    0.175451
     8  H    0.177850
     9  C   -0.456964
    10  H    0.220460
    11  H    0.230458
    12  C   -0.370696
    13  H    0.191198
    14  H    0.174628
    15  C   -0.370624
    16  H    0.174629
    17  H    0.191231
 Sum of Mulliken charges =  -0.00000

 Dipole moment (field-independent basis, Debye):
    X=             -0.1230    Y=              0.0002    Z=             -0.4681  Tot=              0.4840
 Quadrupole moment (field-independent basis, Debye-Ang):
   XX=            -48.0179   YY=            -40.1929   ZZ=            -40.0488
   XY=              0.0048   XZ=             -1.9139   YZ=              0.0002

 Normal termination of Gaussian 16 at Sun Oct 20 18:37:41 2019.
