 Gaussian 16, Revision B.01,
 Gaussian 16:  ES64L-G16RevB.01 20-Dec-2017

 ------------------------------------------------
 # opt=modredundant b3lyp/3-21g geom=connectivity
 ------------------------------------------------

 -------------------
 Title Card Required
 -------------------
 Symbolic Z-matrix:
 Charge =  0 Multiplicity = 1

 SCF Done:  E(RB3LYP) =  -271.156288053     A.U. after   13 cycles
 SCF Done:  E(RB3LYP) =  -271.187429507     A.U. after   12 cycles
 SCF Done:  E(RB3LYP) =  -271.196867457     A.U. after   13 cycles
 SCF Done:  E(RB3LYP) =  -271.197337036     A.U. after   13 cycles
 SCF Done:  E(RB3LYP) =  -271.197436043     A.U. after   11 cycles
 SCF Done:  E(RB3LYP) =  -271.197506486     A.U. after   11 cycles
 SCF Done:  E(RB3LYP) =  -271.197539180     A.U. after   11 cycles
 SCF Done:  E(RB3LYP) =  -271.197580232     A.U. after   11 cycles
 SCF Done:  E(RB3LYP) =  -271.197650168     A.U. after   10 cycles
 SCF Done:  E(RB3LYP) =  -271.197779226     A.U. after   11 cycles
 SCF Done:  E(RB3LYP) =  -271.198454258     A.U. after   14 cycles
 SCF Done:  E(RB3LYP) =  -271.198454510     A.U. after    9 cycles
 SCF Done:  E(RB3LYP) =  -271.197365328     A.U. after   13 cycles
 SCF Done:  E(RB3LYP) =  -271.198445068     A.U. after   13 cycles
 SCF Done:  E(RB3LYP) =  -271.197221445     A.U. after   11 cycles
 SCF Done:  E(RB3LYP) =  -271.198172447     A.U. after   11 cycles
 SCF Done:  E(RB3LYP) =  -271.198075433     A.U. after   11 cycles
 SCF Done:  E(RB3LYP) =  -271.198454508     A.U. after   13 cycles
 SCF Done:  E(RB3LYP) =  -271.198454564     A.U. after    8 cycles
 SCF Done:  E(RB3LYP) =  -271.198454572     A.U. after    7 cycles
 Optimization completed.
    -- Stationary point found.

                         Standard orientation:
 ---------------------------------------------------------------------
 Center     Atomic      Atomic             Coordinates (Angstroms)
 Number     Number       Type             X           Y           Z
 ---------------------------------------------------------------------
      1          6           0       -0.703706    1.229760   -0.320900
      2          6           0       -1.134881    0.820857    0.892751
      3          6           0       -1.414807   -0.632400    0.847686
      4          6           0       -1.145780   -1.099636   -0.391269
      5          1           0       -0.429436    2.233884   -0.610875
      6          1           0       -1.260601    1.436304    1.772645
      7          1           0       -1.770016   -1.209174    1.690582
      8          1           0       -1.250541   -2.116916   -0.740549
      9          6           0       -0.694499    0.049107   -1.276798
     10          1           0       -1.395104    0.205294   -2.110028
     11          1           0        0.305432   -0.124390   -1.690030
     12          6           0        2.477130    0.461999    0.106688
     13          1           0        1.877466    1.303679    0.431790
     14          1           0        3.427304    0.693868   -0.367663
     15          6           0        2.068129   -0.791360    0.291190
     16          1           0        2.669533   -1.639266   -0.026836
     17          1           0        1.116445   -1.013244    0.754877
 ---------------------------------------------------------------------

 The electronic state is 1-A.
 Alpha  occ. eigenvalues --  -10.12369 -10.12209 -10.12148 -10.12077 -10.12015
 Alpha  occ. eigenvalues --  -10.10713 -10.10482  -0.85636  -0.74864  -0.70680
 Alpha  occ. eigenvalues --   -0.70054  -0.56568  -0.55124  -0.52954  -0.51568
 Alpha  occ. eigenvalues --   -0.46344  -0.43139  -0.41003  -0.40427  -0.37686
 Alpha  occ. eigenvalues --   -0.35876  -0.35737  -0.34329  -0.29765  -0.25867
 Alpha  occ. eigenvalues --   -0.21689
 Alpha virt. eigenvalues --   -0.01123   0.03039   0.09063   0.13310   0.15685
 Alpha virt. eigenvalues --    0.17043   0.17581   0.18993   0.19252   0.19453
 Alpha virt. eigenvalues --    0.20018   0.20877   0.21184   0.25625   0.29720

 Mulliken charges:
               1
     1  C   -0.164192
     2  C   -0.184351
     3  C   -0.196498
     4  C   -0.169777
     5  H    0.180680
     6  H    0.179283
     7  H    0.179168
     8  H    0.181286
     9  C   -0.462142
    10  H    0.223235
    11  H    0.241344
    12  C   -0.383358
    13  H    0.193259
    14  H    0.175424
    15  C   -0.391889
    16  H    0.174501
    17  H    0.224027
 Sum of Mulliken charges =  -0.00000

 Dipole moment (field-independent basis, Debye):
    X=             -0.2080    Y=             -0.0084    Z=             -0.5098  Tot=              0.5506
 Quadrupole moment (field-independent basis, Debye-Ang):
   XX=            -46.2401   YY=            -40.3239   ZZ=            -41.7195
   XY=              0.9512   XZ=             -2.1864   YZ=              0.2450

 Normal termination of Gaussian 16 at Sun Oct 20 18:42:15 2019.
