 Gaussian 16, Revision B.01,
 Gaussian 16:  ES64L-G16RevB.01 20-Dec-2017

 ------------------------------------------------
 # opt=modredundant b3lyp/3-21g geom=connectivity
 ------------------------------------------------

 -------------------
 Title Card Required
 -------------------
 Symbolic Z-matrix:
 Charge =  0 Multiplicity = 1

 SCF Done:  E(RB3LYP) =  -271.165214398     A.U. after   13 cycles
 SCF Done:  E(RB3LYP) =  -271.193157382     A.U. after   12 cycles
 SCF Done:  E(RB3LYP) =  -271.197794781     A.U. after   12 cycles
 SCF Done:  E(RB3LYP) =  -271.198198096     A.U. after   11 cycles
 SCF Done:  E(RB3LYP) =  -271.198257325     A.U. after   10 cycles
 SCF Done:  E(RB3LYP) =  -271.198304178     A.U. after   11 cycles
 SCF Done:  E(RB3LYP) =  -271.198338254     A.U. after   11 cycles
 SCF Done:  E(RB3LYP) =  -271.198403619     A.U. after   11 cycles
 SCF Done:  E(RB3LYP) =  -271.198503227     A.U. after   11 cycles
 SCF Done:  E(RB3LYP) =  -271.198646052     A.U. after   11 cycles
 SCF Done:  E(RB3LYP) =  -271.199355121     A.U. after   13 cycles
 SCF Done:  E(RB3LYP) =  -271.199896820     A.U. after   12 cycles
 SCF Done:  E(RB3LYP) =  -271.199909007     A.U. after   11 cycles
 SCF Done:  E(RB3LYP) =  -271.199923753     A.U. after   11 cycles
 SCF Done:  E(RB3LYP) =  -271.199916075     A.U. after   11 cycles
 SCF Done:  E(RB3LYP) =  -271.199924894     A.U. after   11 cycles
 SCF Done:  E(RB3LYP) =  -271.199923493     A.U. after   11 cycles
 SCF Done:  E(RB3LYP) =  -271.199927460     A.U. after   10 cycles
 SCF Done:  E(RB3LYP) =  -271.199927498     A.U. after    8 cycles
 SCF Done:  E(RB3LYP) =  -271.199927548     A.U. after    8 cycles
 Optimization completed.
    -- Stationary point found.

                         Standard orientation:
 ---------------------------------------------------------------------
 Center     Atomic      Atomic             Coordinates (Angstroms)
 Number     Number       Type             X           Y           Z
 ---------------------------------------------------------------------
      1          6           0       -1.201740    1.095861   -0.378404
      2          6           0       -1.436528    0.622678    0.865175
      3          6           0       -1.137050   -0.827232    0.901094
      4          6           0       -0.726692   -1.228496   -0.322071
      5          1           0       -1.327374    2.112248   -0.723321
      6          1           0       -1.782907    1.192528    1.716328
      7          1           0       -1.237608   -1.445989    1.781829
      8          1           0       -0.444875   -2.228245   -0.619883
      9          6           0       -0.741610   -0.043093   -1.272637
     10          1           0       -1.438910   -0.204079   -2.107174
     11          1           0        0.256452    0.147056   -1.686247
     12          6           0        2.121878    0.791833    0.270538
     13          1           0        1.127572    0.993708    0.648600
     14          1           0        2.743929    1.652637    0.038972
     15          6           0        2.557960   -0.452765    0.089399
     16          1           0        3.551647   -0.665672   -0.295847
     17          1           0        1.934763   -1.306913    0.328179
 ---------------------------------------------------------------------

 The electronic state is 1-A.
 Alpha  occ. eigenvalues --  -10.12494 -10.12283 -10.12218 -10.12138 -10.12084
 Alpha  occ. eigenvalues --  -10.10790 -10.10549  -0.85693  -0.74900  -0.70736
 Alpha  occ. eigenvalues --   -0.70123  -0.56596  -0.55186  -0.53009  -0.51623
 Alpha  occ. eigenvalues --   -0.46395  -0.43182  -0.41019  -0.40489  -0.37757
 Alpha  occ. eigenvalues --   -0.35936  -0.35800  -0.34327  -0.29873  -0.25958
 Alpha  occ. eigenvalues --   -0.21794
 Alpha virt. eigenvalues --   -0.01191   0.03032   0.08963   0.13233   0.15662
 Alpha virt. eigenvalues --    0.17023   0.17356   0.18962   0.19256   0.19458
 Alpha virt. eigenvalues --    0.19989   0.20790   0.21154   0.25557   0.29728

 Mulliken charges:
               1
     1  C   -0.172566
     2  C   -0.193962
     3  C   -0.183799
     4  C   -0.165387
     5  H    0.181870
     6  H    0.179882
     7  H    0.180036
     8  H    0.181144
     9  C   -0.464280
    10  H    0.223521
    11  H    0.241923
    12  C   -0.394717
    13  H    0.225927
    14  H    0.175141
    15  C   -0.383786
    16  H    0.176319
    17  H    0.192735
 Sum of Mulliken charges =   0.00000

 Dipole moment (field-independent basis, Debye):
    X=             -0.2210    Y=              0.0125    Z=             -0.4951  Tot=              0.5423
 Quadrupole moment (field-independent basis, Debye-Ang):
   XX=            -46.0148   YY=            -40.3301   ZZ=            -41.8549
   XY=             -0.9922   XZ=             -1.9039   YZ=             -0.1909

 Normal termination of Gaussian 16 at Sun Oct 20 18:40:53 2019.
