 Gaussian 16, Revision B.01,
 Gaussian 16:  ES64L-G16RevB.01 20-Dec-2017

 ------------------------------------------------
 # opt=modredundant b3lyp/3-21g geom=connectivity
 ------------------------------------------------

 -------------------
 Title Card Required
 -------------------
 Symbolic Z-matrix:
 Charge =  0 Multiplicity = 1

 SCF Done:  E(RB3LYP) =  -271.187713679     A.U. after   13 cycles
 SCF Done:  E(RB3LYP) =  -271.197470778     A.U. after   12 cycles
 SCF Done:  E(RB3LYP) =  -271.198205496     A.U. after   11 cycles
 SCF Done:  E(RB3LYP) =  -271.198236148     A.U. after   11 cycles
 SCF Done:  E(RB3LYP) =  -271.198338723     A.U. after   10 cycles
 SCF Done:  E(RB3LYP) =  -271.198443201     A.U. after   11 cycles
 SCF Done:  E(RB3LYP) =  -271.198603790     A.U. after   11 cycles
 SCF Done:  E(RB3LYP) =  -271.198788180     A.U. after   11 cycles
 SCF Done:  E(RB3LYP) =  -271.199075972     A.U. after   14 cycles
 SCF Done:  E(RB3LYP) =  -271.199165823     A.U. after   12 cycles
 SCF Done:  E(RB3LYP) =  -271.200924050     A.U. after   10 cycles
 SCF Done:  E(RB3LYP) =  -271.200926724     A.U. after   10 cycles
 SCF Done:  E(RB3LYP) =  -271.200928945     A.U. after    9 cycles
 SCF Done:  E(RB3LYP) =  -271.200931038     A.U. after    9 cycles
 SCF Done:  E(RB3LYP) =  -271.200931589     A.U. after    8 cycles
 SCF Done:  E(RB3LYP) =  -271.200931681     A.U. after    7 cycles
 SCF Done:  E(RB3LYP) =  -271.200931773     A.U. after    8 cycles
 SCF Done:  E(RB3LYP) =  -271.200931830     A.U. after    7 cycles
 SCF Done:  E(RB3LYP) =  -271.200931877     A.U. after    7 cycles
 SCF Done:  E(RB3LYP) =  -271.200931879     A.U. after    7 cycles
 Optimization completed.
    -- Stationary point found.

                         Standard orientation:
 ---------------------------------------------------------------------
 Center     Atomic      Atomic             Coordinates (Angstroms)
 Number     Number       Type             X           Y           Z
 ---------------------------------------------------------------------
      1          6           0       -1.231522   -1.099168    0.376297
      2          6           0       -1.443885   -0.636422   -0.875220
      3          6           0       -1.156394    0.815954   -0.915411
      4          6           0       -0.774220    1.229543    0.312634
      5          1           0       -1.356258   -2.113975    0.726057
      6          1           0       -1.770308   -1.214501   -1.728655
      7          1           0       -1.246133    1.427845   -1.802055
      8          1           0       -0.506061    2.233534    0.608797
      9          6           0       -0.789566    0.048484    1.269210
     10          1           0       -1.491507    0.207606    2.099846
     11          1           0        0.208128   -0.132400    1.690020
     12          6           0        2.198826   -0.786392   -0.244090
     13          1           0        2.845560   -1.635956   -0.041343
     14          1           0        1.192479   -1.006534   -0.581043
     15          6           0        2.618775    0.466012   -0.080564
     16          1           0        1.968191    1.307996   -0.289810
     17          1           0        3.623822    0.698316    0.261051
 ---------------------------------------------------------------------

 The electronic state is 1-A.
 Alpha  occ. eigenvalues --  -10.12574 -10.12313 -10.12243 -10.12162 -10.12106
 Alpha  occ. eigenvalues --  -10.10875 -10.10656  -0.85692  -0.74958  -0.70745
 Alpha  occ. eigenvalues --   -0.70148  -0.56640  -0.55211  -0.53026  -0.51638
 Alpha  occ. eigenvalues --   -0.46380  -0.43252  -0.41080  -0.40516  -0.37789
 Alpha  occ. eigenvalues --   -0.35958  -0.35825  -0.34340  -0.29934  -0.26049
 Alpha  occ. eigenvalues --   -0.21836
 Alpha virt. eigenvalues --   -0.01203   0.03008   0.08928   0.13189   0.15578
 Alpha virt. eigenvalues --    0.16875   0.17270   0.18920   0.19212   0.19425
 Alpha virt. eigenvalues --    0.19856   0.20734   0.21092   0.25525   0.29509

 Mulliken charges:
               1
     1  C   -0.172689
     2  C   -0.191426
     3  C   -0.183743
     4  C   -0.166108
     5  H    0.182100
     6  H    0.180181
     7  H    0.180291
     8  H    0.181339
     9  C   -0.465494
    10  H    0.223419
    11  H    0.241419
    12  C   -0.394406
    13  H    0.176110
    14  H    0.222781
    15  C   -0.383765
    16  H    0.192752
    17  H    0.177239
 Sum of Mulliken charges =   0.00000

 Dipole moment (field-independent basis, Debye):
    X=             -0.2167    Y=             -0.0114    Z=              0.4852  Tot=              0.5315
 Quadrupole moment (field-independent basis, Debye-Ang):
   XX=            -45.9344   YY=            -40.3043   ZZ=            -41.8832
   XY=              0.9666   XZ=              1.7053   YZ=             -0.1433

 Normal termination of Gaussian 16 at Sun Oct 20 18:36:43 2019.
